,Name,SMILES,Tb,C Atom,Atom,Count Unique Atom,Pass Screen,Atom2,Func. Group
9216,(1-ethynylcyclohexyl) N-carbamoylcarbamate,C#CC1(CCCCC1)OC(=O)NC(=O)N,673.1,10,"[1, 6, 7, 8]",4,True,CHON,ester
9217,3-[4-(2-cyanoethyl)piperazin-1-yl]propanenitrile,C1CN(CCN1CCC#N)CCC#N,673.12,10,"[1, 6, 7]",3,True,CHN,amine
9218,"N,N'-bis(3-aminopropyl)butane-1,4-diamine",C(CCNCCCN)CNCCCN,673.8,10,"[1, 6, 7]",3,True,CHN,amine
9219,"5-(methylcarbamoyl)tetracyclo[3.2.0.02,7.04,6]heptane-1-carboxylic acid",CNC(=O)C12C3C1C4C2(C4C3)C(=O)O,674.7,10,"[1, 6, 7, 8]",4,True,CHON,carboxylic_acid
9220,N-[4-(aziridine-1-carbonylamino)butyl]aziridine-1-carboxamide,C1CN1C(=O)NCCCCNC(=O)N2CC2,675.64,10,"[1, 6, 7, 8]",4,True,CHON,amide
9221,"5-ethyl-5-(2-methylbutyl)imidazolidine-2,4-dione",CCC(C)CC1(C(=O)NC(=O)N1)CC,676.22,10,"[1, 6, 7, 8]",4,True,CHON,amide
9222,3-[4-(2-cyanoethoxy)butoxy]propanenitrile,C(CCOCCC#N)COCCC#N,677.4,10,"[1, 6, 7, 8]",4,True,CHON,ester
9223,2-(octanoylamino)acetic acid,CCCCCCCC(=O)NCC(=O)O,677.95,10,"[1, 6, 7, 8]",4,True,CHON,carboxylic_acid
9224,5-[(2-methylpropan-2-yl)oxycarbonylamino]pentanoic acid,CC(C)(C)OC(=O)NCCCCC(=O)O,679.07,10,"[1, 6, 7, 8]",4,True,CHON,carboxylic_acid
9225,"N,N-bis(2-hydroxyethyl)hexanamide",CCCCCC(=O)N(CCO)CCO,679.07,10,"[1, 6, 7, 8]",4,True,CHON,amide
9226,"1,4,8,11-tetrazacyclotetradecane",C1CNCCNCCCNCCNC1,680.98,10,"[1, 6, 7]",3,True,CHN,amine
9227,"4-hydroxy-2,2,6,6-tetramethylpiperidine-4-carbonitrile",CC1(CC(CC(N1)(C)C)(C#N)O)C,682.14,10,"[1, 6, 7, 8]",4,True,CHON,alcohol
9228,(3Z)-3-propylidene-2-benzofuran-1-one,CC/C=C\1/C2=CC=CC=C2C(=O)O1,327.15,11,"[1, 6, 8]",3,True,CHO,ester
9229,"2-but-3-enyl-4,6-dimethylpyridine",CC1=CC(=NC(=C1)CCC=C)C,328.15,11,"[1, 6, 7]",3,True,CHN,alkene
9230,1-(7-methoxy-1-benzofuran-2-yl)ethanone,CC(=O)C1=CC2=C(O1)C(=CC=C2)OC,331.15,11,"[1, 6, 8]",3,True,CHO,ester
9231,1-(5-methoxy-1-benzofuran-2-yl)ethanone,CC(=O)C1=CC2=C(O1)C=CC(=C2)OC,331.25,11,"[1, 6, 8]",3,True,CHO,ester
9232,"7-methoxy-3,7-dimethyloctanal",CC(CCCC(C)(C)OC)CC=O,333.15,11,"[1, 6, 8]",3,True,CHO,ester
9233,4-ethyl-7-methyloctan-3-ol,CCC(CCC(C)C)C(CC)O,335.15,11,"[1, 6, 8]",3,True,CHO,alcohol
9234,"10-methyl-1,3,8-triazatricyclo[7.4.0.02,7]trideca-2(7),3,5,8,10,12-hexaen-4-amine",CC1=CC=CN2C1=NC3=C2N=C(C=C3)N,337.85,11,"[1, 6, 7]",3,True,CHN,aromatic
9235,"5-tert-butyl-1,3-benzodioxole",CC(C)(C)C1=CC2=C(C=C1)OCO2,340.65,11,"[1, 6, 8]",3,True,CHO,ester
9236,"2-methoxynaphthalene-1,4-dione",COC1=CC(=O)C2=CC=CC=C2C1=O,341.65,11,"[1, 6, 8]",3,True,CHO,ester
9237,5-butyl-2-(dimethylamino)-4-methyl-1H-pyrimidin-6-one,CCCCC1=C(N=C(NC1=O)N(C)C)C,342.15,11,"[1, 6, 7, 8]",4,True,CHON,aromatic
9238,"7-[(2-methylpropan-2-yl)oxy]bicyclo[2.2.1]hepta-2,5-diene",CC(C)(C)OC1C2C=CC1C=C2,343.15,11,"[1, 6, 8]",3,True,CHO,ester
9239,"3-methylimidazo[4,5-f]quinolin-2-amine",CN1C2=C(C3=C(C=C2)N=CC=C3)N=C1N,344.65,11,"[1, 6, 7]",3,True,CHN,aromatic
9240,2-phenoxyethyl propanoate,CCC(=O)OCCOC1=CC=CC=C1,351.35,11,"[1, 6, 8]",3,True,CHO,ester
9241,"1-methyl-1,2,3,4,4a,5,6,7,8,8a-decahydronaphthalene",CC1CCCC2C1CCCC2,353.65,11,"[1, 6]",2,True,CH,alkane
9242,(2-propan-2-ylphenyl) N-methyl-N-nitrosocarbamate,CC(C)C1=CC=CC=C1OC(=O)N(C)N=O,356.2,11,"[1, 6, 7, 8]",4,True,CHON,ester
9243,1-adamantylmethanamine,C1C2CC3CC1CC(C2)(C3)CN,357.15,11,"[1, 6, 7]",3,True,CHN,amine
9244,"1,1-diethyl-3-phenylurea",CCN(CC)C(=O)NC1=CC=CC=C1,357.65,11,"[1, 6, 7, 8]",4,True,CHON,amide
9245,butan-2-yl cyclohexanecarboxylate,CCC(C)OC(=O)C1CCCCC1,357.9,11,"[1, 6, 8]",3,True,CHO,ester
9246,1-butyl-4-methylbenzene,CCCCC1=CC=C(C=C1)C,362.15,11,"[1, 6]",2,True,CH,aromatic
9247,"2,5-dimethyl-N-prop-2-enylaniline",CC1=CC(=C(C=C1)C)NCC=C,362.15,11,"[1, 6, 7]",3,True,CHN,alkene
9248,"9H-pyrido[2,3-b]indol-2-amine",C1=CC=C2C(=C1)C3=C(N2)N=C(C=C3)N,363.15,11,"[1, 6, 7]",3,True,CHN,aromatic
9249,"(2E)-2,4-diethylhepta-2,6-dienal",CCC(CC=C)/C=C(\CC)/C=O,364.15,11,"[1, 6, 8]",3,True,CHO,alkene
9250,"4-[2-(3,5-dioxopiperazin-1-yl)propyl]piperazine-2,6-dione",CC(CN1CC(=O)NC(=O)C1)N2CC(=O)NC(=O)C2,364.65,11,"[1, 6, 7, 8]",4,True,CHON,amide
9251,3-acetyl-1H-indole-5-carbonitrile,CC(=O)C1=CNC2=C1C=C(C=C2)C#N,365.15,11,"[1, 6, 7, 8]",4,True,CHON,aromatic
9252,"6-methoxy-1,2,3,4-tetrahydronaphthalene",COC1=CC2=C(CCCC2)C=C1,365.65,11,"[1, 6, 8]",3,True,CHO,ester
9253,1-phenylcyclobutane-1-carbonitrile,C1CC(C1)(C#N)C2=CC=CC=C2,366.65,11,"[1, 6, 7]",3,True,CHN,aromatic
9254,4-methoxy-2-(5-methoxy-3-methylpyrazol-1-yl)-6-methylpyrimidine,CC1=CC(=NC(=N1)N2C(=CC(=N2)C)OC)OC,370.65,11,"[1, 6, 7, 8]",4,True,CHON,ester
9255,1-cyclohexylpiperidine,C1CCC(CC1)N2CCCCC2,372.15,11,"[1, 6, 7]",3,True,CHN,amine
9256,"9H-pyrido[3,4-b]indol-3-amine",C1=CC=C2C(=C1)C3=CC(=NC=C3N2)N,375.85,11,"[1, 6, 7]",3,True,CHN,aromatic
9257,"2-(4-ethenylphenyl)-1,3-dioxolane",C=CC1=CC=C(C=C1)C2OCCO2,378.15,11,"[1, 6, 8]",3,True,CHO,ester
9258,methyl 1-methoxybicyclo[2.2.2]oct-5-ene-2-carboxylate,COC(=O)C1CC2CCC1(C=C2)OC,378.15,11,"[1, 6, 8]",3,True,CHO,ester
9259,3-propylbicyclo[2.2.1]hept-5-ene-2-carbaldehyde,CCCC1C2CC(C1C=O)C=C2,380.15,11,"[1, 6, 8]",3,True,CHO,alkene
9260,"(7Z)-3-(dimethylamino)-1-methyl-3,4,5,6-tetrahydro-2H-azonin-9-one",CN1CC(CCC/C=C\C1=O)N(C)C,381.15,11,"[1, 6, 7, 8]",4,True,CHON,amide
9261,"undecane-2,3-dione",CCCCCCCCC(=O)C(=O)C,383.15,11,"[1, 6, 8]",3,True,CHO,ketone
9262,"1,3-dibutylimidazolidin-2-one",CCCCN1CCN(C1=O)CCCC,383.65,11,"[1, 6, 7, 8]",4,True,CHON,amide
9263,3-(4-methoxyphenyl)-2-methylpropanal,CC(CC1=CC=C(C=C1)OC)C=O,383.65,11,"[1, 6, 8]",3,True,CHO,ester
9264,"1-[(E)-but-2-enyl]-3,7-dimethylpurine-2,6-dione",C/C=C/CN1C(=O)C2=C(N=CN2C)N(C1=O)C,385.15,11,"[1, 6, 7, 8]",4,True,CHON,alkene
9265,2-(4-methylphenyl)ethyl acetate,CC1=CC=C(C=C1)CCOC(=O)C,387.9,11,"[1, 6, 8]",3,True,CHO,ester
9266,prop-2-enyl 2-phenoxyacetate,C=CCOC(=O)COC1=CC=CC=C1,389.65,11,"[1, 6, 8]",3,True,CHO,ester
9267,N-carbamoyl-2-phenylbutanamide,CCC(C1=CC=CC=C1)C(=O)NC(=O)N,389.95,11,"[1, 6, 7, 8]",4,True,CHON,aromatic
9268,1-(cyclohexen-1-yl)piperidine,C1CCN(CC1)C2=CCCCC2,390.15,11,"[1, 6, 7]",3,True,CHN,alkene
9269,2-ethoxy-5-[(E)-prop-1-enyl]phenol,CCOC1=C(C=C(C=C1)/C=C/C)O,390.15,11,"[1, 6, 8]",3,True,CHO,ester
9270,(4-formylphenyl) 2-methylprop-2-enoate,CC(=C)C(=O)OC1=CC=C(C=C1)C=O,390.65,11,"[1, 6, 8]",3,True,CHO,ester
9271,2-phenylpropyl acetate,CC(COC(=O)C)C1=CC=CC=C1,391.15,11,"[1, 6, 8]",3,True,CHO,ester
9272,"N-[2-(hydroxyamino)-2-oxoethyl]-3,4-dimethoxybenzamide",COC1=C(C=C(C=C1)C(=O)NCC(=O)NO)OC,394.15,11,"[1, 6, 7, 8]",4,True,CHON,ester
9273,"(2,4-dimethylphenyl)methyl acetate",CC1=CC(=C(C=C1)COC(=O)C)C,394.75,11,"[1, 6, 8]",3,True,CHO,ester
9274,1-benzylpyrrolidin-2-one,C1CC(=O)N(C1)CC2=CC=CC=C2,395.9,11,"[1, 6, 7, 8]",4,True,CHON,amide
9275,"[(E)-3,3-dimethoxyprop-1-enyl]benzene",COC(/C=C/C1=CC=CC=C1)OC,396.45,11,"[1, 6, 8]",3,True,CHO,ester
9276,1-(8-hydroxyquinolin-5-yl)ethanone,CC(=O)C1=C2C=CC=NC2=C(C=C1)O,396.65,11,"[1, 6, 7, 8]",4,True,CHON,ketone
9277,"1,3-benzodioxol-5-ylmethyl propanoate",CCC(=O)OCC1=CC2=C(C=C1)OCO2,397.15,11,"[1, 6, 8]",3,True,CHO,ester
9278,2-tert-butyl-1H-benzimidazole,CC(C)(C)C1=NC2=CC=CC=C2N1,397.15,11,"[1, 6, 7]",3,True,CHN,aromatic
9279,ethyl 2-phenylprop-2-enoate,CCOC(=O)C(=C)C1=CC=CC=C1,397.65,11,"[1, 6, 8]",3,True,CHO,ester
9280,3-cyclohexylcyclopentan-1-one,C1CCC(CC1)C2CCC(=O)C2,399.15,11,"[1, 6, 8]",3,True,CHO,ketone
9281,undec-10-ynoic acid,C#CCCCCCCCCC(=O)O,403.15,11,"[1, 6, 8]",3,True,CHO,alkyne
9282,"N-(3-ethoxypropyl)-2,4-dihydroxy-3,3-dimethylbutanamide",CCOCCCNC(=O)C(C(C)(C)CO)O,404.15,11,"[1, 6, 7, 8]",4,True,CHON,ester
9283,diethyl 3-oxoheptanedioate,CCOC(=O)CCCC(=O)CC(=O)OCC,404.15,11,"[1, 6, 8]",3,True,CHO,ester
9284,"ethyl 3,4-dihydro-2H-1,4-benzoxazine-2-carboxylate",CCOC(=O)C1CNC2=CC=CC=C2O1,405.15,11,"[1, 6, 7, 8]",4,True,CHON,ester
9285,methyl 4-phenylbutanoate,COC(=O)CCCC1=CC=CC=C1,405.15,11,"[1, 6, 8]",3,True,CHO,ester
9286,N-(3-methoxyphenyl)-3-oxobutanamide,CC(=O)CC(=O)NC1=CC(=CC=C1)OC,411.15,11,"[1, 6, 7, 8]",4,True,CHON,ester
9287,"1,6-dimethyl-4-oxo-7,8,9,9a-tetrahydro-6H-pyrido[1,2-a]pyrimidine-3-carboxamide",CC1CCCC2N1C(=O)C(=CN2C)C(=O)N,411.15,11,"[1, 6, 7, 8]",4,True,CHON,amide
9288,ethyl 2-(4-methoxyphenyl)acetate,CCOC(=O)CC1=CC=C(C=C1)OC,412.15,11,"[1, 6, 8]",3,True,CHO,ester
9289,1-methyl-4-phenylpiperazine,CN1CCN(CC1)C2=CC=CC=C2,414.15,11,"[1, 6, 7]",3,True,CHN,aromatic
9290,1-ethenyl-2-phenylimidazole,C=CN1C=CN=C1C2=CC=CC=C2,415.65,11,"[1, 6, 7]",3,True,CHN,alkene
9291,"1-(4-methoxyphenyl)butane-1,3-dione",CC(=O)CC(=O)C1=CC=C(C=C1)OC,417.65,11,"[1, 6, 8]",3,True,CHO,ester
9292,3-tert-butylbenzaldehyde,CC(C)(C)C1=CC=CC(=C1)C=O,418.15,11,"[1, 6, 8]",3,True,CHO,aromatic
9293,ethyl 4-(dimethylaminodiazenyl)benzoate,CCOC(=O)C1=CC=C(C=C1)N=NN(C)C,419.15,11,"[1, 6, 7, 8]",4,True,CHON,ester
9294,3-phenoxypyridine,C1=CC=C(C=C1)OC2=CN=CC=C2,421.15,11,"[1, 6, 7, 8]",4,True,CHON,ester
9295,"7,11-diazatricyclo[7.3.1.02,7]tridecan-6-one",C1CC2C3CC(CNC3)CN2C(=O)C1,423.15,11,"[1, 6, 7, 8]",4,True,CHON,amide
9296,4-phenylmethoxybutan-2-ol,CC(CCOCC1=CC=CC=C1)O,424.65,11,"[1, 6, 8]",3,True,CHO,ester
9297,"4-methyl-3,4-dihydro-2H-naphthalen-1-one",CC1CCC(=O)C2=CC=CC=C12,425.65,11,"[1, 6, 8]",3,True,CHO,aromatic
9298,4-butylbenzonitrile,CCCCC1=CC=C(C=C1)C#N,427.15,11,"[1, 6, 7]",3,True,CHN,aromatic
9299,2-(1-methylindol-3-yl)ethanamine,CN1C=C(C2=CC=CC=C21)CCN,428.15,11,"[1, 6, 7]",3,True,CHN,aromatic
9300,[6-(methylcarbamoyloxymethyl)pyridin-2-yl]methyl N-methylcarbamate,CNC(=O)OCC1=NC(=CC=C1)COC(=O)NC,429.55,11,"[1, 6, 7, 8]",4,True,CHON,ester
9301,"undeca-1,10-diyne",C#CCCCCCCCC#C,431.52,11,"[1, 6]",2,True,CH,alkyne
9302,1-nitroso-4-phenylpiperidine,C1CN(CCC1C2=CC=CC=C2)N=O,432.15,11,"[1, 6, 7, 8]",4,True,CHON,aromatic
9303,"5-[(E)-but-1-enyl]-5-propan-2-yl-1,3-diazinane-2,4,6-trione",CC/C=C/C1(C(=O)NC(=O)NC1=O)C(C)C,432.15,11,"[1, 6, 7, 8]",4,True,CHON,alkene
9304,"2,2,6,6-tetramethylheptane",CC(C)(C)CCCC(C)(C)C,436.15,11,"[1, 6]",2,True,CH,alkane
9305,"2,4,4,6-tetramethylheptane",CC(C)CC(C)(C)CC(C)C,437.15,11,"[1, 6]",2,True,CH,alkane
9306,2-methylnaphthalen-1-amine,CC1=C(C2=CC=CC=C2C=C1)N,438.15,11,"[1, 6, 7]",3,True,CHN,aromatic
9307,5-ethylnon-3-en-2-one,CCCCC(CC)C=CC(=O)C,438.15,11,"[1, 6, 8]",3,True,CHO,alkene
9308,"2,2,5,5-tetramethylheptane",CCC(C)(C)CCC(C)(C)C,439.15,11,"[1, 6]",2,True,CH,alkane
9309,"4-ethyl-2,2,5-trimethylhexane",CCC(CC(C)(C)C)C(C)C,439.15,11,"[1, 6]",2,True,CH,alkane
9310,"1,1,3,3,5-pentamethylcyclohexane",CC1CC(CC(C1)(C)C)(C)C,440.1,11,"[1, 6]",2,True,CH,alkane
9311,"4-ethyl-2,2-dimethylheptane",CCCC(CC)CC(C)(C)C,441.15,11,"[1, 6]",2,True,CH,alkane
9312,"2,2,4,5-tetramethylheptane",CCC(C)C(C)CC(C)(C)C,442.15,11,"[1, 6]",2,True,CH,alkane
9313,"2,2,5,6-tetramethylheptane",CC(C)C(C)CCC(C)(C)C,442.15,11,"[1, 6]",2,True,CH,alkane
9314,"4-ethyl-2,6-dimethylheptane",CCC(CC(C)C)CC(C)C,443.15,11,"[1, 6]",2,True,CH,alkane
9315,"2,2,3,6-tetramethylheptane",CC(C)CCC(C)C(C)(C)C,443.15,11,"[1, 6]",2,True,CH,alkane
9316,"2,2,4,4-tetramethylheptane",CCCC(C)(C)CC(C)(C)C,443.15,11,"[1, 6]",2,True,CH,alkane
9317,"2,5-dimethyl-3-propan-2-ylhexane",CC(C)CC(C(C)C)C(C)C,443.15,11,"[1, 6]",2,True,CH,alkane
9318,"3-ethyl-2,2,5-trimethylhexane",CCC(CC(C)C)C(C)(C)C,443.15,11,"[1, 6]",2,True,CH,alkane
9319,"2,2,4-trimethyl-3-propan-2-ylpentane",CC(C)C(C(C)C)C(C)(C)C,443.15,11,"[1, 6]",2,True,CH,alkane
9320,"3,5,5-trimethyloctane",CCCC(C)(C)CC(C)CC,443.15,11,"[1, 6]",2,True,CH,alkane
9321,"2,2,7-trimethyloctane",CC(C)CCCCC(C)(C)C,443.15,11,"[1, 6]",2,True,CH,alkane
9322,"2,2,5-trimethyloctane",CCCC(C)CCC(C)(C)C,444.15,11,"[1, 6]",2,True,CH,alkane
9323,"2,4,4-trimethyloctane",CCCCC(C)(C)CC(C)C,444.15,11,"[1, 6]",2,True,CH,alkane
9324,"2,8-dimethylnona-1,8-diene",CC(=C)CCCCCC(=C)C,444.4,11,"[1, 6]",2,True,CH,alkene
9325,1H-perimidin-2-amine,C1=CC2=C3C(=C1)NC(=NC3=CC=C2)N,444.65,11,"[1, 6, 7]",3,True,CHN,aromatic
9326,"4-buta-1,3-dien-2-yl-1-methylcyclohexene",CC1=CCC(CC1)C(=C)C=C,445.15,11,"[1, 6]",2,True,CH,alkene
9327,"2,3,5,5-tetramethylheptane",CCC(C)(C)CC(C)C(C)C,445.15,11,"[1, 6]",2,True,CH,alkane
9328,"2,2-dimethyl-3-propan-2-ylhexane",CCCC(C(C)C)C(C)(C)C,445.15,11,"[1, 6]",2,True,CH,alkane
9329,2-methyl-4-propan-2-ylheptane,CCCC(CC(C)C)C(C)C,445.15,11,"[1, 6]",2,True,CH,alkane
9330,"2,5,5-trimethyloctane",CCCC(C)(C)CCC(C)C,445.15,11,"[1, 6]",2,True,CH,alkane
9331,"5-ethyl-2,2-dimethylheptane",CCC(CC)CCC(C)(C)C,445.15,11,"[1, 6]",2,True,CH,alkane
9332,2-methyl-3-propan-2-ylheptane,CCCCC(C(C)C)C(C)C,446.0,11,"[1, 6]",2,True,CH,alkane
9333,4-tert-butylheptane,CCCC(CCC)C(C)(C)C,447.15,11,"[1, 6]",2,True,CH,alkane
9334,"2,2,3,5-tetramethylheptane",CCC(C)CC(C)C(C)(C)C,447.15,11,"[1, 6]",2,True,CH,alkane
9335,"2,4,4,5-tetramethylheptane",CCC(C)C(C)(C)CC(C)C,447.15,11,"[1, 6]",2,True,CH,alkane
9336,"2,2,3,4,5-pentamethylhexane",CC(C)C(C)C(C)C(C)(C)C,447.15,11,"[1, 6]",2,True,CH,alkane
9337,2-methyl-4-propylheptane,CCCC(CCC)CC(C)C,447.15,11,"[1, 6]",2,True,CH,alkane
9338,"2,2,6-trimethyloctane",CCC(C)CCCC(C)(C)C,447.15,11,"[1, 6]",2,True,CH,alkane
9339,"2,4,6-trimethyloctane",CCC(C)CC(C)CC(C)C,447.15,11,"[1, 6]",2,True,CH,alkane
9340,"3,3,5-trimethyloctane",CCCC(C)CC(C)(C)CC,447.15,11,"[1, 6]",2,True,CH,alkane
9341,4-methyldec-1-ene,CCCCCCC(C)CC=C,447.52,11,"[1, 6]",2,True,CH,alkene
9342,8-methyldec-1-ene,CCC(C)CCCCCC=C,447.52,11,"[1, 6]",2,True,CH,alkene
9343,"spiro[cyclopropane-1,9'-pentacyclo[4.3.0.02,4.03,8.05,7]nonane]",C1CC12C3C4C5C4C2C6C5C63,448.06,11,"[1, 6]",2,True,CH,alkane
9344,dimethyl nonanedioate,COC(=O)CCCCCCCC(=O)OC,448.15,11,"[1, 6, 8]",3,True,CHO,ester
9345,"2,3,5,6-tetramethylheptane",CC(C)C(C)CC(C)C(C)C,448.15,11,"[1, 6]",2,True,CH,alkane
9346,"4-ethyl-2,5-dimethylheptane",CCC(C)C(CC)CC(C)C,448.15,11,"[1, 6]",2,True,CH,alkane
9347,"5-ethyl-3,3-dimethylheptane",CCC(CC)CC(C)(C)CC,448.15,11,"[1, 6]",2,True,CH,alkane
9348,"2,3,3,6-tetramethylheptane",CC(C)CCC(C)(C)C(C)C,448.15,11,"[1, 6]",2,True,CH,alkane
9349,"2,4-dimethyl-3-propan-2-ylhexane",CCC(C)C(C(C)C)C(C)C,448.15,11,"[1, 6]",2,True,CH,alkane
9350,"3-ethyl-2,2,4-trimethylhexane",CCC(C)C(CC)C(C)(C)C,448.15,11,"[1, 6]",2,True,CH,alkane
9351,"2,2,4,4,5-pentamethylhexane",CC(C)C(C)(C)CC(C)(C)C,449.15,11,"[1, 6]",2,True,CH,alkane
9352,"5-ethyl-2,4-dimethylheptane",CCC(CC)C(C)CC(C)C,449.15,11,"[1, 6]",2,True,CH,alkane
9353,"3-ethyl-2,5-dimethylheptane",CCC(C)CC(CC)C(C)C,449.15,11,"[1, 6]",2,True,CH,alkane
9354,"3-ethyl-2,6-dimethylheptane",CCC(CCC(C)C)C(C)C,449.15,11,"[1, 6]",2,True,CH,alkane
9355,"3-ethyl-4,4-dimethylheptane",CCCC(C)(C)C(CC)CC,449.15,11,"[1, 6]",2,True,CH,alkane
9356,"2,2,3,4-tetramethylheptane",CCCC(C)C(C)C(C)(C)C,449.15,11,"[1, 6]",2,True,CH,alkane
9357,"2,3,3,5-tetramethylheptane",CCC(C)CC(C)(C)C(C)C,449.15,11,"[1, 6]",2,True,CH,alkane
9358,"2,4,5,5-tetramethylheptane",CCC(C)(C)C(C)CC(C)C,449.15,11,"[1, 6]",2,True,CH,alkane
9359,"4-ethyl-2,2,3-trimethylhexane",CCC(CC)C(C)C(C)(C)C,449.15,11,"[1, 6]",2,True,CH,alkane
9360,"3-ethyl-2,3,5-trimethylhexane",CCC(C)(CC(C)C)C(C)C,449.15,11,"[1, 6]",2,True,CH,alkane
9361,"3-ethyl-2,2-dimethylheptane",CCCCC(CC)C(C)(C)C,449.15,11,"[1, 6]",2,True,CH,alkane
9362,5-ethyl-3-methyloctane,CCCC(CC)CC(C)CC,449.15,11,"[1, 6]",2,True,CH,alkane
9363,"2,4,5-trimethyloctane",CCCC(C)C(C)CC(C)C,449.15,11,"[1, 6]",2,True,CH,alkane
9364,"5,5-dimethylnonane",CCCCC(C)(C)CCCC,450.15,11,"[1, 6]",2,True,CH,alkane
9365,"3-ethyl-2,4,5-trimethylhexane",CCC(C(C)C)C(C)C(C)C,450.15,11,"[1, 6]",2,True,CH,alkane
9366,3-methyl-4-propan-2-ylheptane,CCCC(C(C)C)C(C)CC,450.15,11,"[1, 6]",2,True,CH,alkane
9367,"2,3,5-trimethyloctane",CCCC(C)CC(C)C(C)C,450.15,11,"[1, 6]",2,True,CH,alkane
9368,"3,3,6-trimethyloctane",CCC(C)CCC(C)(C)CC,450.15,11,"[1, 6]",2,True,CH,alkane
9369,"4,4-dimethylnonane",CCCCCC(C)(C)CCC,451.15,11,"[1, 6]",2,True,CH,alkane
9370,4-methyl-4-propylheptane,CCCC(C)(CCC)CCC,451.15,11,"[1, 6]",2,True,CH,alkane
9371,"2,4-dimethylnonane",CCCCCC(C)CC(C)C,451.15,11,"[1, 6]",2,True,CH,alkane
9372,"5-ethyl-2,3-dimethylheptane",CCC(CC)CC(C)C(C)C,451.15,11,"[1, 6]",2,True,CH,alkane
9373,"5-ethyl-2,5-dimethylheptane",CCC(C)(CC)CCC(C)C,451.15,11,"[1, 6]",2,True,CH,alkane
9374,"2,3,4,4-tetramethylheptane",CCCC(C)(C)C(C)C(C)C,451.15,11,"[1, 6]",2,True,CH,alkane
9375,"4-ethyl-2,2,4-trimethylhexane",CCC(C)(CC)CC(C)(C)C,451.15,11,"[1, 6]",2,True,CH,alkane
9376,"3-ethyl-2,4,4-trimethylhexane",CCC(C(C)C)C(C)(C)CC,451.15,11,"[1, 6]",2,True,CH,alkane
9377,"2,5,6-trimethyloctane",CCC(C)C(C)CCC(C)C,451.15,11,"[1, 6]",2,True,CH,alkane
9378,4-propan-2-yloctane,CCCCC(CCC)C(C)C,451.15,11,"[1, 6]",2,True,CH,alkane
9379,5-ethyl-2-methyloctane,CCCC(CC)CCC(C)C,451.15,11,"[1, 6]",2,True,CH,alkane
9380,"4,6-dimethylnonane",CCCC(C)CC(C)CCC,452.15,11,"[1, 6]",2,True,CH,alkane
9381,"2,5-dimethylnonane",CCCCC(C)CCC(C)C,452.15,11,"[1, 6]",2,True,CH,alkane
9382,"2,6-dimethylnonane",CCCC(C)CCCC(C)C,452.15,11,"[1, 6]",2,True,CH,alkane
9383,"4-ethyl-2,3-dimethylheptane",CCCC(CC)C(C)C(C)C,452.15,11,"[1, 6]",2,True,CH,alkane
9384,"3-ethyl-2,4-dimethylheptane",CCCC(C)C(CC)C(C)C,452.15,11,"[1, 6]",2,True,CH,alkane
9385,"2,3,4,5-tetramethylheptane",CCC(C)C(C)C(C)C(C)C,452.15,11,"[1, 6]",2,True,CH,alkane
9386,"3,4-diethyl-2-methylhexane",CCC(CC)C(CC)C(C)C,452.15,11,"[1, 6]",2,True,CH,alkane
9387,"4,4-diethyl-2-methylhexane",CCC(CC)(CC)CC(C)C,452.15,11,"[1, 6]",2,True,CH,alkane
9388,3-methyl-4-propylheptane,CCCC(CCC)C(C)CC,452.15,11,"[1, 6]",2,True,CH,alkane
9389,"3,5-diethylheptane",CCC(CC)CC(CC)CC,452.15,11,"[1, 6]",2,True,CH,alkane
9390,"2,2,3-trimethyloctane",CCCCCC(C)C(C)(C)C,452.15,11,"[1, 6]",2,True,CH,alkane
9391,"2,3,7-trimethyloctane",CC(C)CCCC(C)C(C)C,452.15,11,"[1, 6]",2,True,CH,alkane
9392,"3,4,6-trimethyloctane",CCC(C)CC(C)C(C)CC,452.15,11,"[1, 6]",2,True,CH,alkane
9393,5-ethylnonane,CCCCC(CC)CCCC,453.15,11,"[1, 6]",2,True,CH,alkane
9394,4-ethyl-4-methyloctane,CCCCC(C)(CC)CCC,453.15,11,"[1, 6]",2,True,CH,alkane
9395,"3,5-dimethylnonane",CCCCC(C)CC(C)CC,453.15,11,"[1, 6]",2,True,CH,alkane
9396,"2,7-dimethylnonane",CCC(C)CCCCC(C)C,453.15,11,"[1, 6]",2,True,CH,alkane
9397,"3-ethyl-2,3-dimethylheptane",CCCCC(C)(CC)C(C)C,453.15,11,"[1, 6]",2,True,CH,alkane
9398,"4-ethyl-3,3-dimethylheptane",CCCC(CC)C(C)(C)CC,453.15,11,"[1, 6]",2,True,CH,alkane
9399,"3-ethyl-3,5-dimethylheptane",CCC(C)CC(C)(CC)CC,453.15,11,"[1, 6]",2,True,CH,alkane
9400,"3,3,5,5-tetramethylheptane",CCC(C)(C)CC(C)(C)CC,453.15,11,"[1, 6]",2,True,CH,alkane
9401,"2,3-dimethyl-3-propan-2-ylhexane",CCCC(C)(C(C)C)C(C)C,453.15,11,"[1, 6]",2,True,CH,alkane
9402,"3-ethyl-2,2,3-trimethylhexane",CCCC(C)(CC)C(C)(C)C,453.15,11,"[1, 6]",2,True,CH,alkane
9403,"4-ethyl-2,3,4-trimethylhexane",CCC(C)(CC)C(C)C(C)C,453.15,11,"[1, 6]",2,True,CH,alkane
9404,"4,4,5-trimethyloctane",CCCC(C)C(C)(C)CCC,453.15,11,"[1, 6]",2,True,CH,alkane
9405,4-methyl-4-propan-2-ylheptane,CCCC(C)(CCC)C(C)C,453.15,11,"[1, 6]",2,True,CH,alkane
9406,"3,4-diethylheptane",CCCC(CC)C(CC)CC,453.15,11,"[1, 6]",2,True,CH,alkane
9407,4-ethyl-5-methyloctane,CCCC(C)C(CC)CCC,453.15,11,"[1, 6]",2,True,CH,alkane
9408,3-ethyl-5-methyloctane,CCCC(C)CC(CC)CC,453.15,11,"[1, 6]",2,True,CH,alkane
9409,"2,3,4-trimethyloctane",CCCCC(C)C(C)C(C)C,453.15,11,"[1, 6]",2,True,CH,alkane
9410,"2,3,6-trimethyloctane",CCC(C)CCC(C)C(C)C,453.15,11,"[1, 6]",2,True,CH,alkane
9411,"2-hexyl-1,1-dimethylcyclopropane",CCCCCCC1CC1(C)C,453.59,11,"[1, 6]",2,True,CH,alkane
9412,N-butyl-N-prop-2-ynylbutan-1-amine,CCCCN(CCCC)CC#C,453.84,11,"[1, 6, 7]",3,True,CHN,alkyne
9413,"pentacyclo[5.4.0.02,6.03,10.05,9]undecane",C1C2C3CC4C1C5C2CC3C45,453.89,11,"[1, 6]",2,True,CH,alkane
9414,3-(1H-indol-3-yl)propanenitrile,C1=CC=C2C(=C1)C(=CN2)CCC#N,454.15,11,"[1, 6, 7]",3,True,CHN,aromatic
9415,"2,3,3,4,5-pentamethylhexane",CC(C)C(C)C(C)(C)C(C)C,454.15,11,"[1, 6]",2,True,CH,alkane
9416,"4-ethyl-3,5-dimethylheptane",CCC(C)C(CC)C(C)CC,454.15,11,"[1, 6]",2,True,CH,alkane
9417,"3,3,4,5-tetramethylheptane",CCC(C)C(C)C(C)(C)CC,454.15,11,"[1, 6]",2,True,CH,alkane
9418,"3,4,4-trimethyloctane",CCCCC(C)(C)C(C)CC,454.15,11,"[1, 6]",2,True,CH,alkane