,Name,SMILES,Tb,C Atom,Atom,Count Unique Atom,Pass Screen,Atom2,Func. Group
7840,ethyl 4-oxocyclohexane-1-carboxylate,CCOC(=O)C1CCC(=O)CC1,551.11,9,"[1, 6, 8]",3,True,CHO,ester
7841,"5-(aminomethyl)-2,2,4-trimethylcyclopentan-1-amine",CC1CC(C(C1CN)N)(C)C,552.09,9,"[1, 6, 7]",3,True,CHN,amine
7842,"3,3,5,5-tetramethylcyclopentane-1,2-dione",CC1(CC(C(=O)C1=O)(C)C)C,552.25,9,"[1, 6, 8]",3,True,CHO,ketone
7843,"4,4,5,5-tetramethylcyclopentane-1,3-dione",CC1(C(=O)CC(=O)C1(C)C)C,552.25,9,"[1, 6, 8]",3,True,CHO,ketone
7844,3-(2-butoxyethoxy)propanenitrile,CCCCOCCOCCC#N,552.44,9,"[1, 6, 7, 8]",4,True,CHON,ester
7845,dimethyl 2-[(E)-3-methoxyprop-2-enylidene]propanedioate,CO/C=C/C=C(C(=O)OC)C(=O)OC,552.58,9,"[1, 6, 8]",3,True,CHO,ester
7846,4-ethyl-4-formylhexanenitrile,CCC(CC)(CCC#N)C=O,553.03,9,"[1, 6, 7, 8]",4,True,CHON,aldehyde
7847,"2-methyl-2-prop-2-enylcyclopentane-1,3-dione",CC1(C(=O)CCC1=O)CC=C,553.36,9,"[1, 6, 8]",3,True,CHO,alkene
7848,"7,7-dimethylbicyclo[2.2.1]hept-5-ene-2,3-dione",CC1(C2C=CC1C(=O)C2=O)C,553.64,9,"[1, 6, 8]",3,True,CHO,alkene
7849,"3,3-dimethylbicyclo[2.2.1]heptane-2,5-dione",CC1(C2CC(C1=O)CC2=O)C,554.48,9,"[1, 6, 8]",3,True,CHO,ketone
7850,(E)-non-3-enoic acid,CCCCC/C=C/CC(=O)O,555.19,9,"[1, 6, 8]",3,True,CHO,alkene
7851,methyl 2-oxocycloheptane-1-carboxylate,COC(=O)C1CCCCCC1=O,555.38,9,"[1, 6, 8]",3,True,CHO,ester
7852,hexyl 2-hydroxypropanoate,CCCCCCOC(=O)C(C)O,555.48,9,"[1, 6, 8]",3,True,CHO,ester
7853,2-hydroxyheptyl acetate,CCCCCC(COC(=O)C)O,555.48,9,"[1, 6, 8]",3,True,CHO,ester
7854,3-hydroxyheptyl acetate,CCCCC(CCOC(=O)C)O,555.48,9,"[1, 6, 8]",3,True,CHO,ester
7855,butyl 4-hydroxypentanoate,CCCCOC(=O)CCC(C)O,555.48,9,"[1, 6, 8]",3,True,CHO,ester
7856,2-methyl-N-(oxan-2-yl)propanamide,CC(C)C(=O)NC1CCCCO1,555.62,9,"[1, 6, 7, 8]",4,True,CHON,ester
7857,"tricyclo[4.2.1.02,5]non-7-ene-3,4-dione",C1C2C=CC1C3C2C(=O)C3=O,555.87,9,"[1, 6, 8]",3,True,CHO,alkene
7858,N-(oxan-2-yl)butanamide,CCCC(=O)NC1CCCCO1,556.06,9,"[1, 6, 7, 8]",4,True,CHON,ester
7859,"2,5,5-trimethylcyclohexane-1,3-dione",CC1C(=O)CC(CC1=O)(C)C,556.28,9,"[1, 6, 8]",3,True,CHO,ketone
7860,"2,2,6-trimethylcyclohexane-1,4-dione",CC1CC(=O)CC(C1=O)(C)C,556.28,9,"[1, 6, 8]",3,True,CHO,ketone
7861,"4-butylcyclopentane-1,3-dione",CCCCC1CC(=O)CC1=O,556.44,9,"[1, 6, 8]",3,True,CHO,ketone
7862,tert-butyl 2-oxopyrrolidine-1-carboxylate,CC(C)(C)OC(=O)N1CCCC1=O,556.45,9,"[1, 6, 7, 8]",4,True,CHON,ester
7863,"tricyclo[4.2.1.02,5]nonane-3,4-dione",C1CC2CC1C3C2C(=O)C3=O,556.71,9,"[1, 6, 8]",3,True,CHO,ketone
7864,"2,6-dimethoxybenzaldehyde",COC1=C(C(=CC=C1)OC)C=O,558.15,9,"[1, 6, 8]",3,True,CHO,ester
7865,"1,1-di(butan-2-yl)urea",CCC(C)N(C(C)CC)C(=O)N,558.85,9,"[1, 6, 7, 8]",4,True,CHON,amide
7866,non-2-ynoic acid,CCCCCCC#CC(=O)O,560.03,9,"[1, 6, 8]",3,True,CHO,alkyne
7867,non-6-ynoic acid,CCC#CCCCCC(=O)O,560.03,9,"[1, 6, 8]",3,True,CHO,alkyne
7868,non-5-ynoic acid,CCCC#CCCCC(=O)O,560.03,9,"[1, 6, 8]",3,True,CHO,alkyne
7869,2-(4-methylanilino)ethanol,CC1=CC=C(C=C1)NCCO,560.15,9,"[1, 6, 7, 8]",4,True,CHON,aromatic
7870,"2-propan-2-ylcyclohexane-1,3-dione",CC(C)C1C(=O)CCCC1=O,560.27,9,"[1, 6, 8]",3,True,CHO,ketone
7871,"N'-(2-piperidin-1-ylethyl)ethane-1,2-diamine",C1CCN(CC1)CCNCCN,560.61,9,"[1, 6, 7]",3,True,CHN,amine
7872,"spiro[bicyclo[2.2.1]hept-5-ene-7,1'-cyclopropane]-2,3-dione",C1CC12C3C=CC2C(=O)C3=O,560.78,9,"[1, 6, 8]",3,True,CHO,alkene
7873,1-tert-butylperoxy-3-ethoxypropan-2-ol,CCOCC(COOC(C)(C)C)O,561.29,9,"[1, 6, 8]",3,True,CHO,ester
7874,"spiro[bicyclo[2.2.1]heptane-7,1'-cyclopropane]-2,3-dione",C1CC2C(=O)C(=O)C1C23CC3,561.62,9,"[1, 6, 8]",3,True,CHO,ketone
7875,3-ethyl-2H-indazole,CCC1=C2C=CC=CC2=NN1,563.15,9,"[1, 6, 7]",3,True,CHN,aromatic
7876,2-methylbicyclo[2.2.1]hept-5-ene-2-carboxylic acid,CC1(CC2CC1C=C2)C(=O)O,563.51,9,"[1, 6, 8]",3,True,CHO,alkene
7877,2-(2-bicyclo[2.2.1]heptanyl)acetic acid,C1CC2CC1CC2CC(=O)O,564.11,9,"[1, 6, 8]",3,True,CHO,alcohol
7878,methyl 3-oxocycloheptene-1-carboxylate,COC(=O)C1=CC(=O)CCCC1,564.19,9,"[1, 6, 8]",3,True,CHO,ester
7879,4-methylpentan-2-yl 2-cyanoacetate,CC(C)CC(C)OC(=O)CC#N,564.94,9,"[1, 6, 7, 8]",4,True,CHON,ester
7880,2-[2-(2-propoxyethoxy)ethoxy]ethanol,CCCOCCOCCOCCO,564.96,9,"[1, 6, 8]",3,True,CHO,ester
7881,"2,6,6-trimethylcyclohex-2-ene-1,4-dione",CC1=CC(=O)CC(C1=O)(C)C,565.09,9,"[1, 6, 8]",3,True,CHO,alkene
7882,"bicyclo[3.3.1]nona-3,7-diene-2,6-dione",C1C2C=CC(=O)C1C=CC2=O,565.77,9,"[1, 6, 8]",3,True,CHO,alkene
7883,ethyl 6-cyanohexanoate,CCOC(=O)CCCCCC#N,565.82,9,"[1, 6, 7, 8]",4,True,CHON,ester
7884,"3-(2,3-dihydro-1H-pyrrol-5-yl)pyridine",C1CNC(=C1)C2=CN=CC=C2,566.15,9,"[1, 6, 7]",3,True,CHN,alkene
7885,"bicyclo[3.2.2]non-8-ene-6,7-dione",C1CC2C=CC(C1)C(=O)C2=O,566.61,9,"[1, 6, 8]",3,True,CHO,alkene
7886,"3-acetylheptane-2,6-dione",CC(=O)CCC(C(=O)C)C(=O)C,566.69,9,"[1, 6, 8]",3,True,CHO,ketone
7887,1-(cyclohexylamino)propan-2-ol,CC(CNC1CCCCC1)O,566.98,9,"[1, 6, 7, 8]",4,True,CHON,alcohol
7888,"bicyclo[3.3.1]nonane-2,6-dione",C1CC(=O)C2CCC(=O)C1C2,567.45,9,"[1, 6, 8]",3,True,CHO,ketone
7889,"bicyclo[3.2.2]nonane-2,4-dione",C1CC2CCC1C(=O)CC2=O,567.45,9,"[1, 6, 8]",3,True,CHO,ketone
7890,1-methyl-9-azabicyclo[3.3.1]nonan-3-ol,CC12CCCC(N1)CC(C2)O,568.11,9,"[1, 6, 7, 8]",4,True,CHON,alcohol
7891,"2,3,5-trimethylbenzene-1,4-diol",CC1=CC(=C(C(=C1O)C)C)O,568.15,9,"[1, 6, 8]",3,True,CHO,aromatic
7892,ethyl 3-hydroxybenzoate,CCOC(=O)C1=CC(=CC=C1)O,568.2,9,"[1, 6, 8]",3,True,CHO,ester
7893,"1,2,3,3a,4,5,6,6a-octahydropentalene-1-carboxylic acid",C1CC2CCC(C2C1)C(=O)O,568.38,9,"[1, 6, 8]",3,True,CHO,alcohol
7894,"1-pentylpyrrolidine-2,5-dione",CCCCCN1C(=O)CCC1=O,569.28,9,"[1, 6, 7, 8]",4,True,CHON,amide
7895,ethyl 2-aminocyclohexene-1-carboxylate,CCOC(=O)C1=C(CCCC1)N,569.61,9,"[1, 6, 7, 8]",4,True,CHON,ester
7896,diethyl 2-formylbutanedioate,CCOC(=O)CC(C=O)C(=O)OCC,570.18,9,"[1, 6, 8]",3,True,CHO,ester
7897,ethyl 4-hydroxycyclohexane-1-carboxylate,CCOC(=O)C1CCC(CC1)O,570.8,9,"[1, 6, 8]",3,True,CHO,ester
7898,methyl 4-acetyl-5-oxohexanoate,CC(=O)C(CCC(=O)OC)C(=O)C,571.04,9,"[1, 6, 8]",3,True,CHO,ester
7899,ethyl 3-acetyl-4-oxopentanoate,CCOC(=O)CC(C(=O)C)C(=O)C,571.04,9,"[1, 6, 8]",3,True,CHO,ester
7900,1-(1-hydroxycyclohexyl)propan-2-one,CC(=O)CC1(CCCCC1)O,571.36,9,"[1, 6, 8]",3,True,CHO,alcohol
7901,bicyclo[2.2.2]oct-2-ene-1-carboxylic acid,C1CC2(CCC1C=C2)C(=O)O,572.45,9,"[1, 6, 8]",3,True,CHO,alkene
7902,ethyl 2-acetyloxy-2-methyl-3-oxobutanoate,CCOC(=O)C(C)(C(=O)C)OC(=O)C,572.6,9,"[1, 6, 8]",3,True,CHO,ester
7903,"3-hydroxy-2,2,4,4-tetramethyl-5-methylideneimidazolidine-1-carbaldehyde",CC1(C(=C)N(C(N1O)(C)C)C=O)C,572.95,9,"[1, 6, 7, 8]",4,True,CHON,amide
7904,"1,5-dimethylbenzimidazole",CC1=CC2=C(C=C1)N(C=N2)C,573.15,9,"[1, 6, 7]",3,True,CHN,aromatic
7905,bicyclo[2.2.2]octane-1-carboxylic acid,C1CC2(CCC1CC2)C(=O)O,573.29,9,"[1, 6, 8]",3,True,CHO,alcohol
7906,N-(4-hydroxybutyl)-N-pentylnitrous amide,CCCCCN(CCCCO)N=O,573.54,9,"[1, 6, 7, 8]",4,True,CHON,alcohol
7907,"1-(4-hydroxy-1,4-dimethylpiperidin-3-yl)ethanone",CC(=O)C1CN(CCC1(C)O)C,574.86,9,"[1, 6, 7, 8]",4,True,CHON,ketone
7908,3-(1-hydroxyhexyl)oxirane-2-carbaldehyde,CCCCCC(C1C(O1)C=O)O,574.94,9,"[1, 6, 8]",3,True,CHO,ester
7909,"2-(2-hydroxyethoxy)ethyl 2,2-dimethylpropanoate",CC(C)(C)C(=O)OCCOCCO,575.11,9,"[1, 6, 8]",3,True,CHO,ester
7910,"tricyclo[5.2.0.03,5]non-1(7)-ene-2,6-dione",C1CC2=C1C(=O)C3CC3C2=O,575.17,9,"[1, 6, 8]",3,True,CHO,alkene
7911,2-hydroxyethyl cyclohexanecarboxylate,C1CCC(CC1)C(=O)OCCO,575.47,9,"[1, 6, 8]",3,True,CHO,ester
7912,"trimethyl cyclopropane-1,2,3-tricarboxylate",COC(=O)C1C(C1C(=O)OC)C(=O)OC,577.58,9,"[1, 6, 8]",3,True,CHO,ester
7913,"trimethyl propane-1,1,3-tricarboxylate",COC(=O)CCC(C(=O)OC)C(=O)OC,579.74,9,"[1, 6, 8]",3,True,CHO,ester
7914,diethyl 2-acetyloxypropanedioate,CCOC(=O)C(C(=O)OCC)OC(=O)C,579.74,9,"[1, 6, 8]",3,True,CHO,ester
7915,"1-(7-acetyl-1,3,5,7-tetrazabicyclo[3.3.1]nonan-3-yl)ethanone",CC(=O)N1CN2CN(C1)CN(C2)C(=O)C,581.57,9,"[1, 6, 7, 8]",4,True,CHON,amide
7916,1-(3-aminopropyl)azepan-2-one,C1CCC(=O)N(CC1)CCCN,582.53,9,"[1, 6, 7, 8]",4,True,CHON,amide
7917,"2,6-dimethylheptane-2,6-diol",CC(C)(CCCC(C)(C)O)O,583.42,9,"[1, 6, 8]",3,True,CHO,alcohol
7918,"trimethyl (Z)-prop-1-ene-1,2,3-tricarboxylate",COC(=O)C/C(=C/C(=O)OC)/C(=O)OC,584.22,9,"[1, 6, 8]",3,True,CHO,ester
7919,cyclohexyl 2-cyanoacetate,C1CCC(CC1)OC(=O)CC#N,585.37,9,"[1, 6, 7, 8]",4,True,CHON,ester
7920,"1,3-dibutyl-1-nitrosourea",CCCCNC(=O)N(CCCC)N=O,585.4,9,"[1, 6, 7, 8]",4,True,CHON,amide
7921,(1-cyanocyclohexyl) acetate,CC(=O)OC1(CCCCC1)C#N,585.61,9,"[1, 6, 7, 8]",4,True,CHON,ester
7922,1-(4-hydroxy-2-methylphenyl)ethanone,CC1=C(C=CC(=C1)O)C(=O)C,586.15,9,"[1, 6, 8]",3,True,CHO,ketone
7923,"2,2,4-trimethylhexane-1,6-diol",CC(CCO)CC(C)(C)CO,586.21,9,"[1, 6, 8]",3,True,CHO,alcohol
7924,"2,4,4-trimethylhexane-1,6-diol",CC(CC(C)(C)CCO)CO,586.21,9,"[1, 6, 8]",3,True,CHO,alcohol
7925,4-hydroxy-3-methyl-2-prop-2-enylcyclopent-2-en-1-one,CC1=C(C(=O)CC1O)CC=C,586.6,9,"[1, 6, 8]",3,True,CHO,alkene
7926,"2,2,5,5-tetramethylpyrrolidine-3-carboxamide",CC1(CC(C(N1)(C)C)C(=O)N)C,586.89,9,"[1, 6, 7, 8]",4,True,CHON,amide
7927,"5,5-dipropyl-1,3-oxazolidine-2,4-dione",CCCC1(C(=O)NC(=O)O1)CCC,587.09,9,"[1, 6, 7, 8]",4,True,CHON,ester
7928,diethyl 2-isocyanatobutanedioate,CCOC(=O)CC(C(=O)OCC)N=C=O,588.19,9,"[1, 6, 7, 8]",4,True,CHON,ester
7929,"nonane-4,5-diol",CCCCC(C(CCC)O)O,589.0,9,"[1, 6, 8]",3,True,CHO,alcohol
7930,"1-hydroxy-2,2,6,6-tetramethylpiperidin-4-one",CC1(CC(=O)CC(N1O)(C)C)C,589.05,9,"[1, 6, 7, 8]",4,True,CHON,ketone
7931,"nonane-1,3-diol",CCCCCCC(CCO)O,589.44,9,"[1, 6, 8]",3,True,CHO,alcohol
7932,"nonane-1,2-diol",CCCCCCCC(CO)O,589.44,9,"[1, 6, 8]",3,True,CHO,alcohol
7933,"nonane-1,9-diol",C(CCCCO)CCCCO,589.88,9,"[1, 6, 8]",3,True,CHO,alcohol
7934,"4,5-dimethoxy-1,3-bis(methoxymethyl)imidazolidin-2-one",COCN1C(C(N(C1=O)COC)OC)OC,589.97,9,"[1, 6, 7, 8]",4,True,CHON,ester
7935,2-piperazin-1-yl-N-propan-2-ylacetamide,CC(C)NC(=O)CN1CCNCC1,590.06,9,"[1, 6, 7, 8]",4,True,CHON,amide
7936,"3-ethyl-4-imino-5-methylcyclohexa-2,5-dien-1-one",CCC1=CC(=O)C=C(C1=N)C,592.78,9,"[1, 6, 7, 8]",4,True,CHON,alkene
7937,"2-methyl-4,5,6,7-tetrahydroisoindole-1,3-dione",CN1C(=O)C2=C(C1=O)CCCC2,594.08,9,"[1, 6, 7, 8]",4,True,CHON,amide
7938,3-(2-oxocyclohexyl)propanenitrile,C1CCC(=O)C(C1)CCC#N,594.97,9,"[1, 6, 7, 8]",4,True,CHON,ketone
7939,"2,2,5,5-tetramethyl-1H-pyrrole-3-carboxamide",CC1(C=C(C(N1)(C)C)C(=O)N)C,595.7,9,"[1, 6, 7, 8]",4,True,CHON,amide
7940,3-(2-butoxyethoxy)propanoic acid,CCCCOCCOCCC(=O)O,595.87,9,"[1, 6, 8]",3,True,CHO,carboxylic_acid
7941,[3-(hydroxymethyl)-2-bicyclo[2.2.1]hept-5-enyl]methanol,C1C2C=CC1C(C2CO)CO,597.45,9,"[1, 6, 8]",3,True,CHO,alkene
7942,4-[acetyloxymethyl(nitroso)amino]butyl acetate,CC(=O)OCCCCN(COC(=O)C)N=O,597.8,9,"[1, 6, 7, 8]",4,True,CHON,ester
7943,"1,3,6,9,12-pentaoxacyclotetradecane",C1COCCOCOCCOCCO1,598.65,9,"[1, 6, 8]",3,True,CHO,ester
7944,"5,5-dimethyl-3-oxocyclohexene-1-carbonitrile",CC1(CC(=CC(=O)C1)C#N)C,599.35,9,"[1, 6, 7, 8]",4,True,CHON,alkene
7945,"3,3-di(propan-2-yl)azetidine-2,4-dione",CC(C)C1(C(=O)NC1=O)C(C)C,600.08,9,"[1, 6, 7, 8]",4,True,CHON,amide
7946,"3-[di(propan-2-yl)amino]propane-1,2-diol",CC(C)N(CC(CO)O)C(C)C,601.0,9,"[1, 6, 7, 8]",4,True,CHON,alcohol
7947,"1,5,9-triazacyclododecane",C1CNCCCNCCCNC1,601.01,9,"[1, 6, 7]",3,True,CHN,amine
7948,N-(2-hydroxypropyl)hexanamide,CCCCCC(=O)NCC(C)O,601.3,9,"[1, 6, 7, 8]",4,True,CHON,alcohol
7949,"4,4-dimethyl-6-oxoheptanoic acid",CC(=O)CC(C)(C)CCC(=O)O,601.67,9,"[1, 6, 8]",3,True,CHO,carboxylic_acid
7950,N-(3-hydroxypropyl)hexanamide,CCCCCC(=O)NCCCO,601.74,9,"[1, 6, 7, 8]",4,True,CHON,alcohol
7951,"3-(dipropylamino)propane-1,2-diol",CCCN(CCC)CC(CO)O,601.88,9,"[1, 6, 7, 8]",4,True,CHON,alcohol
7952,[2-(hydroxymethyl)-2-bicyclo[2.2.1]hept-5-enyl]methanol,C1C2CC(C1C=C2)(CO)CO,602.36,9,"[1, 6, 8]",3,True,CHO,alkene
7953,[1-(hydroxymethyl)-6-methylcyclohex-3-en-1-yl]methanol,CC1CC=CCC1(CO)CO,604.16,9,"[1, 6, 8]",3,True,CHO,alkene
7954,"2-ethyl-2-(prop-2-enoxymethyl)propane-1,3-diol",CCC(CO)(CO)COCC=C,605.75,9,"[1, 6, 8]",3,True,CHO,ester
7955,4-butoxy-2-methylidene-4-oxobutanoic acid,CCCCOC(=O)CC(=C)C(=O)O,605.81,9,"[1, 6, 8]",3,True,CHO,carboxylic_acid
7956,2-methyl-N-[(2-methylprop-2-enoylamino)methyl]prop-2-enamide,CC(=C)C(=O)NCNC(=O)C(=C)C,606.72,9,"[1, 6, 7, 8]",4,True,CHON,alkene
7957,"3,3-diethyl-1H-pyridine-2,4-dione",CCC1(C(=O)C=CNC1=O)CC,608.66,9,"[1, 6, 7, 8]",4,True,CHON,amide
7958,"4-azatricyclo[5.2.1.02,6]dec-8-ene-3,5-dione",C1C2C=CC1C3C2C(=O)NC3=O,608.69,9,"[1, 6, 7, 8]",4,True,CHON,alkene
7959,7-ethoxy-7-oxoheptanoic acid,CCOC(=O)CCCCCC(=O)O,609.25,9,"[1, 6, 8]",3,True,CHO,carboxylic_acid
7960,"1,3-bis(oxiran-2-ylmethoxy)propan-2-ol",C1C(O1)COCC(COCC2CO2)O,609.48,9,"[1, 6, 8]",3,True,CHO,ester
7961,"3,3-diethylpiperidine-2,4-dione",CCC1(C(=O)CCNC1=O)CC,609.5,9,"[1, 6, 7, 8]",4,True,CHON,amide
7962,dimethyl 2-hydroxy-2-propan-2-ylbutanedioate,CC(C)C(CC(=O)OC)(C(=O)OC)O,610.47,9,"[1, 6, 8]",3,True,CHO,ester
7963,"2-methyl-3a,4,7,7a-tetrahydroisoindole-1,3-dione",CN1C(=O)C2CC=CCC2C1=O,610.9,9,"[1, 6, 7, 8]",4,True,CHON,amide
7964,"3-hexoxypropane-1,2-diol",CCCCCCOCC(CO)O,611.86,9,"[1, 6, 8]",3,True,CHO,ester
7965,"2-acetamido-N,4-dimethylpentanamide",CC(C)CC(C(=O)NC)NC(=O)C,612.72,9,"[1, 6, 7, 8]",4,True,CHON,amide
7966,diethyl 3-hydroxypentanedioate,CCOC(=O)CC(CC(=O)OCC)O,613.7,9,"[1, 6, 8]",3,True,CHO,ester
7967,2-[3-(dimethylamino)propyl-(2-hydroxyethyl)amino]ethanol,CN(C)CCCN(CCO)CCO,614.76,9,"[1, 6, 7, 8]",4,True,CHON,alcohol
7968,N-[3-[3-formamidopropyl(methyl)amino]propyl]formamide,CN(CCCNC=O)CCCNC=O,615.62,9,"[1, 6, 7, 8]",4,True,CHON,amide
7969,3-(4-hydroxy-4-methylpentan-2-yl)oxypropanenitrile,CC(CC(C)(C)O)OCCC#N,618.53,9,"[1, 6, 7, 8]",4,True,CHON,ester
7970,"4,5-bis(prop-2-enoxy)imidazolidin-2-one",C=CCOC1C(NC(=O)N1)OCC=C,619.25,9,"[1, 6, 7, 8]",4,True,CHON,ester
7971,"4,4,5,5-tetramethylcyclopentane-1,2,3-trione",CC1(C(=O)C(=O)C(=O)C1(C)C)C,620.07,9,"[1, 6, 8]",3,True,CHO,ketone
7972,"4-(aminomethyl)octane-1,8-diamine",C(CCN)CC(CCCN)CN,622.67,9,"[1, 6, 7]",3,True,CHN,amine
7973,"2,3-dimethoxy-5-methylcyclohexa-2,5-diene-1,4-dione",CC1=CC(=O)C(=C(C1=O)OC)OC,623.48,9,"[1, 6, 8]",3,True,CHO,ester
7974,9-aminononanoic acid,C(CCCCN)CCCC(=O)O,623.56,9,"[1, 6, 7, 8]",4,True,CHON,carboxylic_acid
7975,"8-azaspiro[4.5]decane-7,9-dione",C1CCC2(C1)CC(=O)NC(=O)C2,625.18,9,"[1, 6, 7, 8]",4,True,CHON,amide
7976,diethyl 2-acetamidopropanedioate,CCOC(=O)C(C(=O)OCC)NC(=O)C,625.56,9,"[1, 6, 7, 8]",4,True,CHON,ester
7977,"4,5-dipropoxyimidazolidin-2-one",CCCOC1C(NC(=O)N1)OCCC,625.89,9,"[1, 6, 7, 8]",4,True,CHON,ester
7978,1-(2-piperazin-1-ylethylamino)propan-2-ol,CC(CNCCN1CCNCC1)O,628.37,9,"[1, 6, 7, 8]",4,True,CHON,alcohol
7979,N-carbamoyl-2-propan-2-ylpent-4-enamide,CC(C)C(CC=C)C(=O)NC(=O)N,631.76,9,"[1, 6, 7, 8]",4,True,CHON,alkene
7980,1-[2-(2-hydroxypropoxy)propoxy]propan-2-ol,CC(COCC(C)OCC(C)O)O,633.4,9,"[1, 6, 8]",3,True,CHO,ester
7981,"bicyclo[3.2.2]nonane-2,3,4-trione",C1CC2CCC1C(=O)C(=O)C2=O,635.27,9,"[1, 6, 8]",3,True,CHO,ketone
7982,"bicyclo[2.2.1]hepta-2,5-diene-2,3-dicarbonitrile",C1C2C=CC1C(=C2C#N)C#N,635.71,9,"[1, 6, 7]",3,True,CHN,alkene
7983,"2,6,10,13-tetrazatricyclo[7.3.1.05,13]trideca-1,3,5,7,9,11-hexaene",C1=CN=C2C=CN=C3N2C1=NC=C3,636.0,9,"[1, 6, 7]",3,True,CHN,alkene
7984,"2,4,8,13-tetrazatricyclo[7.3.1.05,13]trideca-1(12),2,4,6,8,10-hexaene",C1=CC2=NC=CC3=NC=NC(=C1)N23,636.0,9,"[1, 6, 7]",3,True,CHN,alkene
7985,"2,4,6,13-tetrazatricyclo[7.3.1.05,13]trideca-1,3,5,7,9,11-hexaene",C1=CC2=NC=NC3=NC=CC(=C1)N23,636.0,9,"[1, 6, 7]",3,True,CHN,alkene
7986,"2,6-dihydroxy-2,6-dimethylheptan-4-one",CC(C)(CC(=O)CC(C)(C)O)O,637.29,9,"[1, 6, 8]",3,True,CHO,alcohol
7987,3-(2-piperazin-1-ylethylamino)propanenitrile,C1CN(CCN1)CCNCCC#N,638.71,9,"[1, 6, 7]",3,True,CHN,amine
7988,2-cyclohexylidenepropanedinitrile,C1CCC(=C(C#N)C#N)CC1,640.42,9,"[1, 6, 7]",3,True,CHN,alkene
7989,"N-(2,2,6,6-tetramethylpiperidin-4-ylidene)hydroxylamine",CC1(CC(=NO)CC(N1)(C)C)C,640.77,9,"[1, 6, 7, 8]",4,True,CHON,amine
7990,3-ethyl-2-hydroxyheptanoic acid,CCCCC(CC)C(C(=O)O)O,642.33,9,"[1, 6, 8]",3,True,CHO,alcohol
7991,3-amino-3-cyclohexylpropanoic acid,C1CCC(CC1)C(CC(=O)O)N,642.67,9,"[1, 6, 7, 8]",4,True,CHON,carboxylic_acid
7992,9-hydroxynonanoic acid,C(CCCCO)CCCC(=O)O,643.21,9,"[1, 6, 8]",3,True,CHO,alcohol
7993,4-methylhexan-3-yl acetate,CCC(C)C(CC)OC(=O)C,643.73,9,"[1, 6, 8]",3,True,CHO,ester
7994,2-(2-hydroxyethyliminomethyl)phenol,C1=CC=C(C(=C1)C=NCCO)O,644.87,9,"[1, 6, 7, 8]",4,True,CHON,aromatic
7995,"1,3-dipropylimidazolidine-2,4,5-trione",CCCN1C(=O)C(=O)N(C1=O)CCC,645.27,9,"[1, 6, 7, 8]",4,True,CHON,amide
7996,2-(N-hydroxy-C-methylcarbonimidoyl)-5-methylphenol,CC1=CC(=C(C=C1)C(=NO)C)O,649.73,9,"[1, 6, 7, 8]",4,True,CHON,aromatic
7997,"1,4,7,10-tetraoxacyclododec-2-ylmethanol",C1COCCOC(COCCO1)CO,650.67,9,"[1, 6, 8]",3,True,CHO,ester
7998,"N'-[3-(3-aminopropylamino)propyl]propane-1,3-diamine",C(CN)CNCCCNCCCN,650.92,9,"[1, 6, 7]",3,True,CHN,amine
7999,2-methyl-2-[(2-methylpropan-2-yl)oxycarbonylamino]propanoic acid,CC(C)(C)OC(=O)NC(C)(C)C(=O)O,652.96,9,"[1, 6, 7, 8]",4,True,CHON,carboxylic_acid
8000,4-[(2-methylpropan-2-yl)oxycarbonylamino]butanoic acid,CC(C)(C)OC(=O)NCCCC(=O)O,656.19,9,"[1, 6, 7, 8]",4,True,CHON,carboxylic_acid
8001,"N,N-bis(2-hydroxyethyl)pentanamide",CCCCC(=O)N(CCO)CCO,656.19,9,"[1, 6, 7, 8]",4,True,CHON,amide
8002,N-[2-(2-oxoimidazolidin-1-yl)ethyl]but-2-enamide,CC=CC(=O)NCCN1CCNC1=O,658.21,9,"[1, 6, 7, 8]",4,True,CHON,amide
8003,1-(tert-butyldiazenyl)cyclopentan-1-ol,CC(C)(C)N=NC1(CCCC1)O,659.19,9,"[1, 6, 7, 8]",4,True,CHON,alcohol
8004,"4-hydroxy-4-azatricyclo[5.2.1.02,6]dec-8-ene-3,5-dione",C1C2C=CC1C3C2C(=O)N(C3=O)O,660.49,9,"[1, 6, 7, 8]",4,True,CHON,alkene
8005,4-oxo-4-(2-prop-2-enoyloxyethoxy)butanoic acid,C=CC(=O)OCCOC(=O)CCC(=O)O,664.15,9,"[1, 6, 8]",3,True,CHO,carboxylic_acid
8006,"3,4-dihydroisoquinoline-6,7-diol",C1CN=CC2=CC(=C(C=C21)O)O,666.39,9,"[1, 6, 7, 8]",4,True,CHON,aromatic
8007,(Z)-4-oxo-4-(2-prop-2-enoyloxyethoxy)but-2-enoic acid,C=CC(=O)OCCOC(=O)/C=C\C(=O)O,668.31,9,"[1, 6, 8]",3,True,CHO,carboxylic_acid
8008,1-cyclohexyl-3-(2-hydroxyethyl)urea,C1CCC(CC1)NC(=O)NCCO,671.46,9,"[1, 6, 7, 8]",4,True,CHON,alcohol
8009,(Z)-N-(acetylcarbamoyl)-2-ethylbut-2-enamide,CC/C(=C/C)/C(=O)NC(=O)NC(=O)C,671.51,9,"[1, 6, 7, 8]",4,True,CHON,alkene
8010,"2,3-dihydroxy-4,4,5,5-tetramethylcyclopent-2-en-1-one",CC1(C(=C(C(=O)C1(C)C)O)O)C,677.91,9,"[1, 6, 8]",3,True,CHO,alkene
8011,"3-hydroxy-1-methyl-2,3-dihydroindole-5,6-dione",CN1CC(C2=CC(=O)C(=O)C=C21)O,680.75,9,"[1, 6, 7, 8]",4,True,CHON,ketone
8012,"2-(2-methylpropoxy)ethyl N,N-bis(hydroxymethyl)carbamate",CC(C)COCCOC(=O)N(CO)CO,682.52,9,"[1, 6, 7, 8]",4,True,CHON,ester
8013,"3,7-dimethyl-1-prop-2-enylpurine-2,6-dione",CN1C=NC2=C1C(=O)N(C(=O)N2C)CC=C,307.15,10,"[1, 6, 7, 8]",4,True,CHON,alkene
8014,"1,2,3,4,5-pentamethylcyclopenta-1,3-diene",CC1C(=C(C(=C1C)C)C)C,331.15,10,"[1, 6]",2,True,CH,alkene
8015,"(2E,4E)-deca-2,4-dienal",CCCCC/C=C/C=C/C=O,337.65,10,"[1, 6, 8]",3,True,CHO,alkene
8016,2-(3-methoxyphenyl)-N-methylethanamine,CNCCC1=CC(=CC=C1)OC,344.15,10,"[1, 6, 7, 8]",4,True,CHON,ester
8017,2-[acetyl(2-acetyloxyethyl)amino]ethyl acetate,CC(=O)N(CCOC(=O)C)CCOC(=O)C,345.55,10,"[1, 6, 7, 8]",4,True,CHON,ester
8018,propan-2-yl cyclohexanecarboxylate,CC(C)OC(=O)C1CCCCC1,345.65,10,"[1, 6, 8]",3,True,CHO,ester
8019,"(3E)-3,7-dimethylocta-1,3,6-triene",CC(=CC/C=C(\C)/C=C)C,346.15,10,"[1, 6]",2,True,CH,alkene
8020,2-methylnonan-4-one,CCCCCC(=O)CC(C)C,349.15,10,"[1, 6, 8]",3,True,CHO,ketone
8021,1-methylazecan-2-one,CN1CCCCCCCCC1=O,354.65,10,"[1, 6, 7, 8]",4,True,CHON,amide
8022,6-oxo-3-prop-1-en-2-ylheptanal,CC(=C)C(CCC(=O)C)CC=O,356.15,10,"[1, 6, 8]",3,True,CHO,aldehyde
8023,"1,2,3,4-tetramethylcyclohexane",CC1CCC(C(C1C)C)C,357.15,10,"[1, 6]",2,True,CH,alkane
8024,"2,2-dimethyl-3H-1-benzofuran",CC1(CC2=CC=CC=C2O1)C,357.4,10,"[1, 6, 8]",3,True,CHO,ester
8025,2-(dibutylamino)acetonitrile,CCCCN(CCCC)CC#N,358.15,10,"[1, 6, 7]",3,True,CHN,amine