,Name,SMILES,Tb,C Atom,Atom,Count Unique Atom,Pass Screen,Atom2,Func. Group
7424,1-cyclopentylbutan-1-one,CCCC(=O)C1CCCC1,471.15,9,"[1, 6, 8]",3,True,CHO,ketone
7425,"N'-[2-(dimethylamino)ethyl]-N,N,N'-trimethylethane-1,2-diamine",CN(C)CCN(C)CCN(C)C,471.15,9,"[1, 6, 7]",3,True,CHN,amine
7426,"N,N-dipropylpropanamide",CCCN(CCC)C(=O)CC,471.83,9,"[1, 6, 7, 8]",4,True,CHON,amide
7427,N-prop-2-enylcyclohexanamine,C=CCNC1CCCCC1,471.92,9,"[1, 6, 7]",3,True,CHN,alkene
7428,"[(2E,4E)-hexa-2,4-dienyl] propanoate",CCC(=O)OC/C=C/C=C/C,472.06,9,"[1, 6, 8]",3,True,CHO,ester
7429,3-(dimethylamino)propyl 2-methylprop-2-enoate,CC(=C)C(=O)OCCCN(C)C,472.74,9,"[1, 6, 7, 8]",4,True,CHON,ester
7430,"4,9-dioxatetracyclo[5.4.0.03,5.08,10]undecane",C1C2CC3C(C2CC4C1O4)O3,472.77,9,"[1, 6, 8]",3,True,CHO,ester
7431,1-[2-(2-methoxyethoxy)ethoxy]butane,CCCCOCCOCCOC,472.78,9,"[1, 6, 8]",3,True,CHO,ester
7432,3-cyclohex-3-en-1-ylpropanal,C1CC(CC=C1)CCC=O,472.89,9,"[1, 6, 8]",3,True,CHO,alkene
7433,2-[5-(oxiran-2-yl)pentyl]oxirane,C1C(O1)CCCCCC2CO2,472.9,9,"[1, 6, 8]",3,True,CHO,ester
7434,1-cyclohexylpropan-1-ol,CCC(C1CCCCC1)O,473.15,9,"[1, 6, 8]",3,True,CHO,alcohol
7435,2-butoxypyridine,CCCCOC1=CC=CC=N1,473.15,9,"[1, 6, 7, 8]",4,True,CHON,ester
7436,2-cyclohexylpropanal,CC(C=O)C1CCCCC1,473.29,9,"[1, 6, 8]",3,True,CHO,aldehyde
7437,"3,3,5-trimethylazepane",CC1CCNCC(C1)(C)C,473.46,9,"[1, 6, 7]",3,True,CHN,amine
7438,"3,5,5-trimethylazepane",CC1CC(CCNC1)(C)C,473.46,9,"[1, 6, 7]",3,True,CHN,amine
7439,"2-butan-2-yl-4-methyl-1,3-dioxane",CCC(C)C1OCCC(O1)C,473.86,9,"[1, 6, 8]",3,True,CHO,ester
7440,"2-butyl-2,3-dihydropyran-6-one",CCCCC1CC=CC(=O)O1,473.91,9,"[1, 6, 8]",3,True,CHO,ester
7441,2-(2-methylpropoxy)oxane,CC(C)COC1CCCCO1,474.0,9,"[1, 6, 8]",3,True,CHO,ester
7442,2-methylbicyclo[3.2.1]octan-2-ol,CC1(CCC2CCC1C2)O,474.15,9,"[1, 6, 8]",3,True,CHO,alcohol
7443,2-propylcyclohexan-1-ol,CCCC1CCCCC1O,474.15,9,"[1, 6, 8]",3,True,CHO,alcohol
7444,"5-butyl-2-methyl-1,3-dioxane",CCCCC1COC(OC1)C,474.3,9,"[1, 6, 8]",3,True,CHO,ester
7445,"2-butyl-5-methyl-1,3-dioxane",CCCCC1OCC(CO1)C,474.3,9,"[1, 6, 8]",3,True,CHO,ester
7446,2-butoxyoxane,CCCCOC1CCCCO1,474.44,9,"[1, 6, 8]",3,True,CHO,ester
7447,"3,3,4-trimethyloxepan-2-one",CC1CCCOC(=O)C1(C)C,474.59,9,"[1, 6, 8]",3,True,CHO,ester
7448,6-butyloxan-2-one,CCCCC1CCCC(=O)O1,474.75,9,"[1, 6, 8]",3,True,CHO,ester
7449,"1,3-di(propan-2-yloxy)propan-2-ol",CC(C)OCC(COC(C)C)O,474.85,9,"[1, 6, 8]",3,True,CHO,ester
7450,"7-bicyclo[2.2.1]hepta-2,5-dienyl acetate",CC(=O)OC1C2C=CC1C=C2,475.14,9,"[1, 6, 8]",3,True,CHO,ester
7451,"2-hexyl-1,3-dioxolane",CCCCCCC1OCCO1,475.15,9,"[1, 6, 8]",3,True,CHO,ester
7452,"2-[2-(dimethylamino)ethoxymethoxy]-N,N-dimethylethanamine",CN(C)CCOCOCCN(C)C,475.24,9,"[1, 6, 7, 8]",4,True,CHON,ester
7453,"ethyl N,N-di(propan-2-yl)carbamate",CCOC(=O)N(C(C)C)C(C)C,475.3,9,"[1, 6, 7, 8]",4,True,CHON,ester
7454,"4,5,5-trimethylhexan-1-ol",CC(CCCO)C(C)(C)C,475.55,9,"[1, 6, 8]",3,True,CHO,alcohol
7455,cyclopentyl 2-methylprop-2-enoate,CC(=C)C(=O)OC1CCCC1,475.58,9,"[1, 6, 8]",3,True,CHO,ester
7456,phenyl prop-2-enoate,C=CC(=O)OC1=CC=CC=C1,475.65,9,"[1, 6, 8]",3,True,CHO,ester
7457,[(Z)-hex-3-enyl] propanoate,CC/C=C\CCOC(=O)CC,475.65,9,"[1, 6, 8]",3,True,CHO,ester
7458,"3,4-diethyl-2-methyl-1H-pyrrole",CCC1=CNC(=C1CC)C,475.65,9,"[1, 6, 7]",3,True,CHN,aromatic
7459,2-bicyclo[2.2.1]hept-5-enyl acetate,CC(=O)OC1CC2CC1C=C2,475.98,9,"[1, 6, 8]",3,True,CHO,ester
7460,ethyl 3-(diethylamino)propanoate,CCN(CC)CCC(=O)OCC,476.18,9,"[1, 6, 7, 8]",4,True,CHON,ester
7461,"(Z)-1,3,3-triethoxyprop-1-ene",CCO/C=C\C(OCC)OCC,476.5,9,"[1, 6, 8]",3,True,CHO,ester
7462,"3,3-diethylpentane-2,4-dione",CCC(CC)(C(=O)C)C(=O)C,476.65,9,"[1, 6, 8]",3,True,CHO,ketone
7463,methyl bicyclo[2.2.1]heptane-2-carboxylate,COC(=O)C1CC2CCC1C2,476.82,9,"[1, 6, 8]",3,True,CHO,ester
7464,5-methyloctan-2-amine,CCCC(C)CCC(C)N,477.17,9,"[1, 6, 7]",3,True,CHN,amine
7465,nonan-5-amine,CCCCC(CCCC)N,477.61,9,"[1, 6, 7]",3,True,CHN,amine
7466,7-methyloctan-1-amine,CC(C)CCCCCCN,477.61,9,"[1, 6, 7]",3,True,CHN,amine
7467,(E)-1-[1-methoxy-1-[(E)-prop-1-enoxy]ethoxy]prop-1-ene,C/C=C/OC(O/C=C/C)(OC)C,477.87,9,"[1, 6, 8]",3,True,CHO,ester
7468,2-propoxycyclohexan-1-ol,CCCOC1CCCCC1O,478.15,9,"[1, 6, 8]",3,True,CHO,ester
7469,"4-methyl-2-(2-methylprop-1-enyl)-1,3-dioxane",CC1CCOC(O1)C=C(C)C,478.34,9,"[1, 6, 8]",3,True,CHO,ester
7470,(4-methylcyclohexyl) acetate,CC1CCC(CC1)OC(=O)C,478.62,9,"[1, 6, 8]",3,True,CHO,ester
7471,"2-pentyl-1,3-dioxane",CCCCCC1OCCCO1,478.97,9,"[1, 6, 8]",3,True,CHO,ester
7472,"N,2,6-trimethylaniline",CC1=C(C(=CC=C1)C)NC,479.15,9,"[1, 6, 7]",3,True,CHN,aromatic
7473,"ethyl 3,3-diethoxypropanoate",CCOC(CC(=O)OCC)OCC,479.15,9,"[1, 6, 8]",3,True,CHO,ester
7474,1-phenylpropan-1-amine,CCC(C1=CC=CC=C1)N,479.15,9,"[1, 6, 7]",3,True,CHN,aromatic
7475,"N,N-diethyl-2,2-dimethylpropanamide",CCN(CC)C(=O)C(C)(C)C,479.15,9,"[1, 6, 7, 8]",4,True,CHON,amide
7476,2-prop-2-enoxyethyl 2-methylprop-2-enoate,CC(=C)C(=O)OCCOCC=C,479.4,9,"[1, 6, 8]",3,True,CHO,ester
7477,3-ethylheptan-1-ol,CCCCC(CC)CCO,479.65,9,"[1, 6, 8]",3,True,CHO,alcohol
7478,"tert-butyl 2,2-dimethylpropaneperoxoate",CC(C)(C)C(=O)OOC(C)(C)C,479.7,9,"[1, 6, 8]",3,True,CHO,ester
7479,ethyl (E)-3-(diethylamino)prop-2-enoate,CCN(CC)/C=C/C(=O)OCC,480.34,9,"[1, 6, 7, 8]",4,True,CHON,ester
7480,2-propanoyloxypropyl propanoate,CCC(=O)OCC(C)OC(=O)CC,480.65,9,"[1, 6, 8]",3,True,CHO,ester
7481,1-ethoxy-2-methoxybenzene,CCOC1=CC=CC=C1OC,481.15,9,"[1, 6, 8]",3,True,CHO,ester
7482,spiro[3.5]nonan-3-one,C1CCC2(CC1)CCC2=O,481.15,9,"[1, 6, 8]",3,True,CHO,ketone
7483,"3,6,6-trimethylcyclohex-2-en-1-one",CC1=CC(=O)C(CC1)(C)C,481.15,9,"[1, 6, 8]",3,True,CHO,alkene
7484,"tert-butyl 2,5-dihydropyrrole-1-carboxylate",CC(C)(C)OC(=O)N1CC=CC1,481.15,9,"[1, 6, 7, 8]",4,True,CHON,ester
7485,"1,2,3,4,4a,5,6,7,8,8a-decahydroquinoline",C1CCC2C(C1)CCCN2,481.65,9,"[1, 6, 7]",3,True,CHN,amine
7486,methyl bicyclo[2.2.1]heptane-1-carboxylate,COC(=O)C12CCC(C1)CC2,481.73,9,"[1, 6, 8]",3,True,CHO,ester
7487,cyclooctanecarbaldehyde,C1CCCC(CCC1)C=O,482.27,9,"[1, 6, 8]",3,True,CHO,aldehyde
7488,2-methoxybutyl 2-methylprop-2-enoate,CCC(COC(=O)C(=C)C)OC,482.28,9,"[1, 6, 8]",3,True,CHO,ester
7489,2-butoxyethyl prop-2-enoate,CCCCOCCOC(=O)C=C,482.84,9,"[1, 6, 8]",3,True,CHO,ester
7490,"2-methoxy-N,N-dimethylaniline",CN(C)C1=CC=CC=C1OC,483.15,9,"[1, 6, 7, 8]",4,True,CHON,ester
7491,2-isocyanatoethylbenzene,C1=CC=C(C=C1)CCN=C=O,483.15,9,"[1, 6, 7, 8]",4,True,CHON,aromatic
7492,"2-isocyanato-1,4-dimethylbenzene",CC1=CC(=C(C=C1)C)N=C=O,483.15,9,"[1, 6, 7, 8]",4,True,CHON,aromatic
7493,(1-methylcyclohexyl) acetate,CC(=O)OC1(CCCCC1)C,483.53,9,"[1, 6, 8]",3,True,CHO,ester
7494,"5-methyl-2,3-dihydro-1-benzofuran",CC1=CC2=C(C=C1)OCC2,483.65,9,"[1, 6, 8]",3,True,CHO,ester
7495,"2,5-diethylcyclopentan-1-one",CCC1CCC(C1=O)CC,483.95,9,"[1, 6, 8]",3,True,CHO,ketone
7496,"3-butylpentane-2,4-dione",CCCCC(C(=O)C)C(=O)C,484.15,9,"[1, 6, 8]",3,True,CHO,ketone
7497,"3,6-dimethylhept-1-yn-3-ol",CC(C)CCC(C)(C#C)O,484.15,9,"[1, 6, 8]",3,True,CHO,alkyne
7498,"2,2,5,5-tetramethylcyclopentan-1-one",CC1(CCC(C1=O)(C)C)C,484.43,9,"[1, 6, 8]",3,True,CHO,ketone
7499,4-methyloct-1-yn-4-ol,CCCCC(C)(CC#C)O,484.59,9,"[1, 6, 8]",3,True,CHO,alkyne
7500,"methyl bicyclo[2.2.1]hepta-2,5-diene-2-carboxylate",COC(=O)C1=CC2CC1C=C2,484.79,9,"[1, 6, 8]",3,True,CHO,ester
7501,"2-methyl-6,7-dihydro-5H-cyclopenta[b]pyridine",CC1=NC2=C(CCC2)C=C1,485.05,9,"[1, 6, 7]",3,True,CHN,aromatic
7502,"2-methoxy-N,N-bis(2-methoxyethyl)ethanamine",COCCN(CCOC)CCOC,485.22,9,"[1, 6, 7, 8]",4,True,CHON,ester
7503,"3,4,6-trimethylcyclohex-2-en-1-one",CC1CC(C(=O)C=C1C)C,486.15,9,"[1, 6, 8]",3,True,CHO,alkene
7504,"3,3-dimethylbicyclo[2.2.1]heptan-2-one",CC1(C2CCC(C2)C1=O)C,486.66,9,"[1, 6, 8]",3,True,CHO,ketone
7505,"6,6-dimethylbicyclo[2.2.1]heptan-2-one",CC1(CC2CC1C(=O)C2)C,486.66,9,"[1, 6, 8]",3,True,CHO,ketone
7506,tert-butyl pyrrole-1-carboxylate,CC(C)(C)OC(=O)N1C=CC=C1,486.95,9,"[1, 6, 7, 8]",4,True,CHON,ester
7507,1-(1-methylpiperidin-2-yl)propan-2-one,CC(=O)CC1CCCCN1C,487.11,9,"[1, 6, 7, 8]",4,True,CHON,ketone
7508,non-1-yn-3-ol,CCCCCCC(C#C)O,487.38,9,"[1, 6, 8]",3,True,CHO,alkyne
7509,"4,4,6-trimethylcyclohex-2-en-1-one",CC1CC(C=CC1=O)(C)C,487.62,9,"[1, 6, 8]",3,True,CHO,alkene
7510,ethyl 2-cyano-2-ethylbutanoate,CCC(CC)(C#N)C(=O)OCC,487.65,9,"[1, 6, 7, 8]",4,True,CHON,ester
7511,1-(cyclohexen-1-yl)propan-2-one,CC(=O)CC1=CCCCC1,487.75,9,"[1, 6, 8]",3,True,CHO,alkene
7512,ethyl 2-(cyclopenten-1-yl)acetate,CCOC(=O)CC1=CCCC1,487.83,9,"[1, 6, 8]",3,True,CHO,ester
7513,3-(dipropylamino)propan-1-ol,CCCN(CCC)CCCO,488.15,9,"[1, 6, 7, 8]",4,True,CHON,alcohol
7514,"2-ethoxy-4,4,5,5-tetramethyl-1,3-dioxolane",CCOC1OC(C(O1)(C)C)(C)C,488.26,9,"[1, 6, 8]",3,True,CHO,ester
7515,"(E)-3-(diethylamino)-N,N-dimethylprop-2-enamide",CCN(CC)/C=C/C(=O)N(C)C,488.43,9,"[1, 6, 7, 8]",4,True,CHON,amide
7516,"5,6-dimethylidenebicyclo[2.2.1]hept-2-en-7-one",C=C1C2C=CC(C1=C)C2=O,488.57,9,"[1, 6, 8]",3,True,CHO,alkene
7517,tert-butyl pyrrolidine-1-carboxylate,CC(C)(C)OC(=O)N1CCCC1,488.63,9,"[1, 6, 7, 8]",4,True,CHON,ester
7518,"tricyclo[3.3.1.03,7]nonan-2-one",C1C2CC3CC1C(C2)C3=O,488.89,9,"[1, 6, 8]",3,True,CHO,ketone
7519,"2,3-dimethylidenebicyclo[2.2.1]heptan-7-one",C=C1C2CCC(C1=C)C2=O,489.41,9,"[1, 6, 8]",3,True,CHO,alkene
7520,"5,6-dimethylidenebicyclo[2.2.1]heptan-2-one",C=C1C2CC(C1=C)C(=O)C2,489.41,9,"[1, 6, 8]",3,True,CHO,alkene
7521,1-azaspiro[4.5]decane,C1CCC2(CC1)CCCN2,489.54,9,"[1, 6, 7]",3,True,CHN,amine
7522,2-prop-2-enylcyclohexan-1-one,C=CCC1CCCCC1=O,489.57,9,"[1, 6, 8]",3,True,CHO,alkene
7523,"1-N,1-N-dipropylpropane-1,2-diamine",CCCN(CCC)CC(C)N,490.05,9,"[1, 6, 7]",3,True,CHN,amine
7524,2-ethyl-4-methylphenol,CCC1=C(C=CC(=C1)C)O,490.15,9,"[1, 6, 8]",3,True,CHO,aromatic
7525,"3-methyl-1,4-dioxaspiro[4.5]decane",CC1COC2(O1)CCCCC2,490.22,9,"[1, 6, 8]",3,True,CHO,ester
7526,1-cyclohexylidenepropan-2-one,CC(=O)C=C1CCCCC1,490.25,9,"[1, 6, 8]",3,True,CHO,alkene
7527,"2,3,4-trimethylhex-5-en-3-ol",CC(C)C(C)(C(C)C=C)O,490.27,9,"[1, 6, 8]",3,True,CHO,alkene
7528,ethyl 2-cyclopentylideneacetate,CCOC(=O)C=C1CCCC1,490.33,9,"[1, 6, 8]",3,True,CHO,ester
7529,"2,6-dimethylhepta-1,6-dien-4-ol",CC(=C)CC(CC(=C)C)O,490.38,9,"[1, 6, 8]",3,True,CHO,alkene
7530,diethyl 2-methylbutanedioate,CCOC(=O)CC(C)C(=O)OCC,490.65,9,"[1, 6, 8]",3,True,CHO,ester
7531,"2,3,3,4-tetramethylpentan-2-ol",CC(C)C(C)(C)C(C)(C)O,490.8,9,"[1, 6, 8]",3,True,CHO,alcohol
7532,"2,3,4,4-tetramethylpentan-2-ol",CC(C(C)(C)C)C(C)(C)O,490.8,9,"[1, 6, 8]",3,True,CHO,alcohol
7533,"2,6-dimethylhept-6-en-2-ol",CC(=C)CCCC(C)(C)O,491.03,9,"[1, 6, 8]",3,True,CHO,alkene
7534,3-methyloct-1-en-3-ol,CCCCCC(C)(C=C)O,491.15,9,"[1, 6, 8]",3,True,CHO,alkene
7535,4-methyloct-1-en-4-ol,CCCCC(C)(CC=C)O,491.15,9,"[1, 6, 8]",3,True,CHO,alkene
7536,"2,5,5-trimethylhexan-2-ol",CC(C)(C)CCC(C)(C)O,491.24,9,"[1, 6, 8]",3,True,CHO,alcohol
7537,"2,4,4-trimethylhexan-2-ol",CCC(C)(C)CC(C)(C)O,491.24,9,"[1, 6, 8]",3,True,CHO,alcohol
7538,"3-ethyl-2,3-dimethylpentan-2-ol",CCC(C)(CC)C(C)(C)O,491.24,9,"[1, 6, 8]",3,True,CHO,alcohol
7539,"3,5,5-trimethylhexan-3-ol",CCC(C)(CC(C)(C)C)O,491.24,9,"[1, 6, 8]",3,True,CHO,alcohol
7540,ethyl 1-methylpiperidine-3-carboxylate,CCOC(=O)C1CCCN(C1)C,491.46,9,"[1, 6, 7, 8]",4,True,CHON,ester
7541,4-propan-2-ylcyclohex-2-en-1-one,CC(C)C1CCC(=O)C=C1,491.61,9,"[1, 6, 8]",3,True,CHO,alkene
7542,"(2,4-dimethylphenyl)methanamine",CC1=CC(=C(C=C1)CN)C,491.7,9,"[1, 6, 7]",3,True,CHN,aromatic
7543,"methyl 2-azabicyclo[3.2.1]octa-3,6-diene-2-carboxylate",COC(=O)N1C=CC2CC1C=C2,492.25,9,"[1, 6, 7, 8]",4,True,CHON,ester
7544,"2,5,6-trimethylcyclohex-2-en-1-one",CC1CC=C(C(=O)C1C)C,492.36,9,"[1, 6, 8]",3,True,CHO,alkene
7545,2-propan-2-ylcyclohexan-1-one,CC(C)C1CCCCC1=O,492.45,9,"[1, 6, 8]",3,True,CHO,ketone
7546,"(3,4-dimethylphenyl)methanol",CC1=C(C=C(C=C1)CO)C,492.7,9,"[1, 6, 8]",3,True,CHO,aromatic
7547,"2,3,4,5-tetramethylcyclopent-2-en-1-one",CC1C(C(=O)C(=C1C)C)C,493.07,9,"[1, 6, 8]",3,True,CHO,alkene
7548,methyl 2-azabicyclo[3.2.1]oct-3-ene-2-carboxylate,COC(=O)N1C=CC2CCC1C2,493.09,9,"[1, 6, 7, 8]",4,True,CHON,ester
7549,methyl 2-azabicyclo[3.2.1]oct-6-ene-2-carboxylate,COC(=O)N1CCC2CC1C=C2,493.09,9,"[1, 6, 7, 8]",4,True,CHON,ester
7550,2-prop-1-enylphenol,CC=CC1=CC=CC=C1O,493.15,9,"[1, 6, 8]",3,True,CHO,alkene
7551,"1,2,2-trimethylcyclohexan-1-amine",CC1(CCCCC1(C)N)C,493.41,9,"[1, 6, 7]",3,True,CHN,amine
7552,"2,3,4-trimethylhexan-2-ol",CCC(C)C(C)C(C)(C)O,493.59,9,"[1, 6, 8]",3,True,CHO,alcohol
7553,"2,3,5-trimethylhexan-3-ol",CC(C)CC(C)(C(C)C)O,493.59,9,"[1, 6, 8]",3,True,CHO,alcohol
7554,"2,5,5-trimethylhexan-3-ol",CC(C)C(CC(C)(C)C)O,493.59,9,"[1, 6, 8]",3,True,CHO,alcohol
7555,"2,4,5-trimethylhexan-2-ol",CC(C)C(C)CC(C)(C)O,493.59,9,"[1, 6, 8]",3,True,CHO,alcohol
7556,1-azabicyclo[2.2.2]octan-3-yl acetate,CC(=O)OC1CN2CCC1CC2,493.93,9,"[1, 6, 7, 8]",4,True,CHON,ester
7557,methyl 2-azabicyclo[3.2.1]octane-2-carboxylate,COC(=O)N1CCC2CCC1C2,493.93,9,"[1, 6, 7, 8]",4,True,CHON,ester
7558,non-1-en-4-ol,CCCCCC(CC=C)O,493.94,9,"[1, 6, 8]",3,True,CHO,alkene
7559,"3,3,5-trimethylhexan-1-ol",CC(C)CC(C)(C)CCO,494.03,9,"[1, 6, 8]",3,True,CHO,alcohol
7560,"2,2-dimethylheptan-3-ol",CCCCC(C(C)(C)C)O,494.03,9,"[1, 6, 8]",3,True,CHO,alcohol
7561,"3,5-dimethylheptan-3-ol",CCC(C)CC(C)(CC)O,494.03,9,"[1, 6, 8]",3,True,CHO,alcohol
7562,3-ethyl-4-methylhexan-3-ol,CCC(C)C(CC)(CC)O,494.03,9,"[1, 6, 8]",3,True,CHO,alcohol
7563,"3,3-diethylpentan-2-ol",CCC(CC)(CC)C(C)O,494.03,9,"[1, 6, 8]",3,True,CHO,alcohol
7564,"3-ethyl-2,2-dimethylpentan-1-ol",CCC(CC)C(C)(C)CO,494.03,9,"[1, 6, 8]",3,True,CHO,alcohol
7565,4-ethyl-3-methylhexan-3-ol,CCC(CC)C(C)(CC)O,494.03,9,"[1, 6, 8]",3,True,CHO,alcohol
7566,"7-methylidene-1,4-dioxaspiro[4.5]decane",C=C1CCCC2(C1)OCCO2,494.05,9,"[1, 6, 8]",3,True,CHO,ester
7567,3-phenylpropan-1-amine,C1=CC=C(C=C1)CCCN,494.15,9,"[1, 6, 7]",3,True,CHN,aromatic
7568,4-methoxy-1-benzofuran,COC1=CC=CC2=C1C=CO2,494.15,9,"[1, 6, 8]",3,True,CHO,ester
7569,"2-(aminomethyl)-3,3,5-trimethylcyclopentan-1-amine",CC1CC(C(C1N)CN)(C)C,494.15,9,"[1, 6, 7]",3,True,CHN,amine
7570,"1,1,5,5-tetramethoxypentane",COC(CCCC(OC)OC)OC,494.32,9,"[1, 6, 8]",3,True,CHO,ester
7571,non-8-en-1-ol,C=CCCCCCCCO,494.38,9,"[1, 6, 8]",3,True,CHO,alkene
7572,2-methyl-2-propylpentan-1-ol,CCCC(C)(CCC)CO,494.47,9,"[1, 6, 8]",3,True,CHO,alcohol
7573,"6,6-dimethylheptan-1-ol",CC(C)(C)CCCCCO,494.47,9,"[1, 6, 8]",3,True,CHO,alcohol
7574,"N,N-dimethyl-N'-pentylethanimidamide",CCCCCN=C(C)N(C)C,494.52,9,"[1, 6, 7]",3,True,CHN,amine
7575,"N,N-diethyl-N'-propylethanimidamide",CCCN=C(C)N(CC)CC,494.52,9,"[1, 6, 7]",3,True,CHN,amine
7576,methyl 2-cyclohexylideneacetate,COC(=O)C=C1CCCCC1,494.6,9,"[1, 6, 8]",3,True,CHO,ester
7577,"N'-hexyl-N,N-dimethylmethanimidamide",CCCCCCN=CN(C)C,494.64,9,"[1, 6, 7]",3,True,CHN,amine
7578,"1,1-bis(2-methoxyethoxy)propane",CCC(OCCOC)OCCOC,494.76,9,"[1, 6, 8]",3,True,CHO,ester
7579,pentyl 3-oxobutanoate,CCCCCOC(=O)CC(=O)C,495.0,9,"[1, 6, 8]",3,True,CHO,ester
7580,"(E)-1-(3,4-dihydro-2H-pyridin-1-yl)but-2-en-1-one",C/C=C/C(=O)N1CCCC=C1,495.1,9,"[1, 6, 7, 8]",4,True,CHON,amide
7581,4-ethyl-2-methylphenol,CCC1=CC(=C(C=C1)O)C,495.15,9,"[1, 6, 8]",3,True,CHO,aromatic
7582,2-methylpropyl furan-2-carboxylate,CC(C)COC(=O)C1=CC=CO1,495.15,9,"[1, 6, 8]",3,True,CHO,ester
7583,(E)-1-piperidin-1-ylbut-2-en-1-one,C/C=C/C(=O)N1CCCCC1,495.94,9,"[1, 6, 7, 8]",4,True,CHON,amide
7584,ethyl 2-piperidin-1-ylacetate,CCOC(=O)CN1CCCCC1,496.13,9,"[1, 6, 7, 8]",4,True,CHON,ester
7585,"2,4-dimethylheptan-3-ol",CCCC(C)C(C(C)C)O,496.38,9,"[1, 6, 8]",3,True,CHO,alcohol
7586,4-ethyl-2-methylhexan-3-ol,CCC(CC)C(C(C)C)O,496.38,9,"[1, 6, 8]",3,True,CHO,alcohol
7587,oxecan-2-one,C1CCCCOC(=O)CCC1,496.5,9,"[1, 6, 8]",3,True,CHO,ester
7588,"4,6-dimethylheptan-1-ol",CC(C)CC(C)CCCO,496.82,9,"[1, 6, 8]",3,True,CHO,alcohol
7589,3-ethylheptan-2-ol,CCCCC(CC)C(C)O,496.82,9,"[1, 6, 8]",3,True,CHO,alcohol
7590,5-ethylheptan-2-ol,CCC(CC)CCC(C)O,496.82,9,"[1, 6, 8]",3,True,CHO,alcohol
7591,3-ethylheptan-4-ol,CCCC(C(CC)CC)O,496.82,9,"[1, 6, 8]",3,True,CHO,alcohol
7592,3-methyloctan-2-ol,CCCCCC(C)C(C)O,496.82,9,"[1, 6, 8]",3,True,CHO,alcohol
7593,6-methyloctan-3-ol,CCC(C)CCC(CC)O,496.82,9,"[1, 6, 8]",3,True,CHO,alcohol
7594,5-methyloctan-4-ol,CCCC(C)C(CCC)O,496.82,9,"[1, 6, 8]",3,True,CHO,alcohol
7595,4-methyloctan-3-ol,CCCCC(C)C(CC)O,496.82,9,"[1, 6, 8]",3,True,CHO,alcohol
7596,5-methyloctan-2-ol,CCCC(C)CCC(C)O,496.82,9,"[1, 6, 8]",3,True,CHO,alcohol
7597,6-methyloctan-4-ol,CCCC(CC(C)CC)O,496.82,9,"[1, 6, 8]",3,True,CHO,alcohol
7598,7-methyloctan-2-ol,CC(C)CCCCC(C)O,496.82,9,"[1, 6, 8]",3,True,CHO,alcohol
7599,7-methyloctan-3-ol,CCC(CCCC(C)C)O,496.82,9,"[1, 6, 8]",3,True,CHO,alcohol
7600,2-ethyl-5-methylhexan-1-ol,CCC(CCC(C)C)CO,496.82,9,"[1, 6, 8]",3,True,CHO,alcohol
7601,"bicyclo[4.2.1]nona-2,4,7-trien-9-one",C1=CC2C=CC(C2=O)C=C1,497.11,9,"[1, 6, 8]",3,True,CHO,alkene
7602,"2-phenyl-1,3-dioxolane",C1COC(O1)C2=CC=CC=C2,497.15,9,"[1, 6, 8]",3,True,CHO,ester
7603,5-ethyl-2-methylphenol,CCC1=CC(=C(C=C1)C)O,497.15,9,"[1, 6, 8]",3,True,CHO,aromatic
7604,"5-ethenyl-1,3-benzodioxole",C=CC1=CC2=C(C=C1)OCO2,497.2,9,"[1, 6, 8]",3,True,CHO,ester
7605,2-propylhexan-1-ol,CCCCC(CCC)CO,497.26,9,"[1, 6, 8]",3,True,CHO,alcohol
7606,2-ethylheptan-1-ol,CCCCCC(CC)CO,497.26,9,"[1, 6, 8]",3,True,CHO,alcohol
7607,2-methyloctan-1-ol,CCCCCCC(C)CO,497.26,9,"[1, 6, 8]",3,True,CHO,alcohol
7608,5-ethylheptan-1-ol,CCC(CC)CCCCO,497.26,9,"[1, 6, 8]",3,True,CHO,alcohol
7609,3-methyloctan-1-ol,CCCCCC(C)CCO,497.26,9,"[1, 6, 8]",3,True,CHO,alcohol
7610,5-methyloctan-1-ol,CCCC(C)CCCCO,497.26,9,"[1, 6, 8]",3,True,CHO,alcohol
7611,3-propylhexan-1-ol,CCCC(CCC)CCO,497.26,9,"[1, 6, 8]",3,True,CHO,alcohol
7612,"2,6,6-trimethylcyclohex-2-en-1-one",CC1=CCCC(C1=O)(C)C,497.27,9,"[1, 6, 8]",3,True,CHO,alkene
7613,3-ethyl-2-methylphenol,CCC1=C(C(=CC=C1)O)C,497.65,9,"[1, 6, 8]",3,True,CHO,aromatic
7614,2-phenylpropan-1-ol,CC(CO)C1=CC=CC=C1,497.65,9,"[1, 6, 8]",3,True,CHO,aromatic
7615,"N-(2,4,4-trimethylpentan-2-yl)formamide",CC(C)(C)CC(C)(C)NC=O,497.89,9,"[1, 6, 7, 8]",4,True,CHON,amide
7616,"(2E)-2,4-dimethylhepta-2,6-dien-1-ol",CC(CC=C)/C=C(\C)/CO,497.98,9,"[1, 6, 8]",3,True,CHO,alkene
7617,"3-methyl-6,7-dihydro-5H-cyclopenta[b]pyridine",CC1=CC2=C(CCC2)N=C1,498.15,9,"[1, 6, 7]",3,True,CHN,aromatic
7618,bicyclo[3.2.2]non-3-en-2-one,C1CC2CCC1C=CC2=O,498.79,9,"[1, 6, 8]",3,True,CHO,alkene
7619,bicyclo[4.2.1]non-7-en-9-one,C1CCC2C=CC(C1)C2=O,498.79,9,"[1, 6, 8]",3,True,CHO,alkene
7620,1-azabicyclo[2.2.2]octan-4-yl acetate,CC(=O)OC12CCN(CC1)CC2,498.84,9,"[1, 6, 7, 8]",4,True,CHON,ester
7621,1-(2-methoxyphenyl)-N-methylmethanamine,CNCC1=CC=CC=C1OC,499.15,9,"[1, 6, 7, 8]",4,True,CHON,ester
7622,1-(isocyanatomethyl)-2-methylbenzene,CC1=CC=CC=C1CN=C=O,499.15,9,"[1, 6, 7, 8]",4,True,CHON,aromatic
7623,methyl 2-(1-methyl-4H-pyridin-3-yl)acetate,CN1C=CCC(=C1)CC(=O)OC,499.43,9,"[1, 6, 7, 8]",4,True,CHON,ester
7624,bicyclo[3.3.1]nonan-2-one,C1CC2CCC(=O)C(C1)C2,499.63,9,"[1, 6, 8]",3,True,CHO,ketone
7625,bicyclo[4.2.1]nonan-9-one,C1CCC2CCC(C1)C2=O,499.63,9,"[1, 6, 8]",3,True,CHO,ketone
7626,"2,3,3a,4,5,6,7,7a-octahydroinden-1-one",C1CCC2C(C1)CCC2=O,499.63,9,"[1, 6, 8]",3,True,CHO,ketone
7627,bicyclo[3.3.1]nonan-9-one,C1CC2CCCC(C1)C2=O,499.63,9,"[1, 6, 8]",3,True,CHO,ketone
7628,"3,4-dimethylbenzaldehyde",CC1=C(C=C(C=C1)C=O)C,499.65,9,"[1, 6, 8]",3,True,CHO,aromatic
7629,"N,N-dimethyl-3-pyrrolidin-1-ylpropanamide",CN(C)C(=O)CCN1CCCC1,499.95,9,"[1, 6, 7, 8]",4,True,CHON,amide
7630,"3,6-dimethylhept-6-en-4-yn-3-ol",CCC(C)(C#CC(=C)C)O,500.03,9,"[1, 6, 8]",3,True,CHO,alkene
7631,"2,6-dimethylbenzaldehyde",CC1=C(C(=CC=C1)C)C=O,500.15,9,"[1, 6, 8]",3,True,CHO,aromatic
7632,"ethyl 1-methyl-3,6-dihydro-2H-pyridine-4-carboxylate",CCOC(=O)C1=CCN(CC1)C,500.27,9,"[1, 6, 7, 8]",4,True,CHON,ester
7633,methyl (2E)-2-(1-methylpyridin-2-ylidene)acetate,CN\1C=CC=C/C1=C\C(=O)OC,501.09,9,"[1, 6, 7, 8]",4,True,CHON,ester