,Name,SMILES,Tb,C Atom,Atom,Count Unique Atom,Pass Screen,Atom2,Func. Group
10819,"[(2E)-2,6-dimethylocta-2,7-dienyl] acetate",CC(CC/C=C(\C)/COC(=O)C)C=C,532.66,12,"[1, 6, 8]",3,True,CHO,ester
10820,"3,6-dimethoxy-3-methyl-6-propan-2-ylcyclohexene",CC(C)C1(CCC(C=C1)(C)OC)OC,533.08,12,"[1, 6, 8]",3,True,CHO,ester
10821,"ethyl (2E,4Z)-deca-2,4-dienoate",CCCCC/C=C\C=C\C(=O)OCC,533.15,12,"[1, 6, 8]",3,True,CHO,ester
10822,2-methyl-4-(2-methylbutan-2-yl)phenol,CCC(C)(C)C1=CC(=C(C=C1)O)C,533.15,12,"[1, 6, 8]",3,True,CHO,aromatic
10823,4-pentylbenzoic acid,CCCCCC1=CC=C(C=C1)C(=O)O,533.85,12,"[1, 6, 8]",3,True,CHO,aromatic
10824,"1,4-dimethoxy-1-methyl-4-propan-2-ylcyclohexane",CC(C)C1(CCC(CC1)(C)OC)OC,533.92,12,"[1, 6, 8]",3,True,CHO,ester
10825,1-(4-methylphenyl)pentan-1-one,CCCCC(=O)C1=CC=C(C=C1)C,534.15,12,"[1, 6, 8]",3,True,CHO,aromatic
10826,1-[1-(1-propoxypropan-2-yloxy)propan-2-yloxy]propan-2-ol,CCCOCC(C)OCC(C)OCC(C)O,534.15,12,"[1, 6, 8]",3,True,CHO,ester
10827,6-propan-2-ylbicyclo[2.2.2]octane-2-carbaldehyde,CC(C)C1CC2CCC1C(C2)C=O,535.06,12,"[1, 6, 8]",3,True,CHO,aldehyde
10828,"(1,2-dimethyl-3-prop-1-en-2-ylcyclopentyl) acetate",CC1C(CCC1(C)OC(=O)C)C(=C)C,535.12,12,"[1, 6, 8]",3,True,CHO,ester
10829,dibutan-2-yl (E)-but-2-enedioate,CCC(C)OC(=O)/C=C/C(=O)OC(C)CC,535.15,12,"[1, 6, 8]",3,True,CHO,ester
10830,butyl 3-methylbenzoate,CCCCOC(=O)C1=CC=CC(=C1)C,535.45,12,"[1, 6, 8]",3,True,CHO,ester
10831,"3,6-dimethylhept-5-en-2-yl propanoate",CCC(=O)OC(C)C(C)CC=C(C)C,535.54,12,"[1, 6, 8]",3,True,CHO,ester
10832,(4-methyl-2-propylhex-2-enyl) acetate,CCCC(=CC(C)CC)COC(=O)C,535.98,12,"[1, 6, 8]",3,True,CHO,ester
10833,3-methylbut-2-enyl 5-methylhexanoate,CC(C)CCCC(=O)OCC=C(C)C,535.98,12,"[1, 6, 8]",3,True,CHO,ester
10834,1-phenylhexan-3-one,CCCC(=O)CCC1=CC=CC=C1,536.15,12,"[1, 6, 8]",3,True,CHO,aromatic
10835,3-methylbut-2-enyl heptanoate,CCCCCCC(=O)OCC=C(C)C,536.42,12,"[1, 6, 8]",3,True,CHO,ester
10836,[(Z)-hex-3-enyl] hexanoate,CCCCCC(=O)OCC/C=C\CC,536.54,12,"[1, 6, 8]",3,True,CHO,ester
10837,[(E)-hex-2-enyl] hexanoate,CCCCCC(=O)OC/C=C/CCC,536.54,12,"[1, 6, 8]",3,True,CHO,ester
10838,butyl oct-2-enoate,CCCCCC=CC(=O)OCCCC,536.54,12,"[1, 6, 8]",3,True,CHO,ester
10839,ethyl (E)-dec-4-enoate,CCCCC/C=C/CCC(=O)OCC,536.54,12,"[1, 6, 8]",3,True,CHO,ester
10840,[(Z)-dec-3-enyl] acetate,CCCCCC/C=C\CCOC(=O)C,536.54,12,"[1, 6, 8]",3,True,CHO,ester
10841,4-methyl-2-phenylpentanenitrile,CC(C)CC(C#N)C1=CC=CC=C1,537.15,12,"[1, 6, 7]",3,True,CHN,aromatic
10842,"dimethyl 1,2,2-trimethylcyclopentane-1,3-dicarboxylate",CC1(C(CCC1(C)C(=O)OC)C(=O)OC)C,537.15,12,"[1, 6, 8]",3,True,CHO,ester
10843,"3,5-dimethyl-6-propylcyclohex-3-ene-1-carbaldehyde",CCCC1C(C=C(CC1C=O)C)C,537.17,12,"[1, 6, 8]",3,True,CHO,alkene
10844,"5,5-dimethyl-2,4-di(propan-2-yl)-1,3-dioxane",CC(C)C1C(COC(O1)C(C)C)(C)C,537.63,12,"[1, 6, 8]",3,True,CHO,ester
10845,"1,1,3-triethoxy-3-methylpentane",CCC(C)(CC(OCC)OCC)OCC,537.75,12,"[1, 6, 8]",3,True,CHO,ester
10846,"(2,4,6-trimethylcyclohexyl)methyl acetate",CC1CC(C(C(C1)C)COC(=O)C)C,537.92,12,"[1, 6, 8]",3,True,CHO,ester
10847,2-ethoxy-1-methyl-4-propan-2-ylbenzene,CCOC1=C(C=CC(=C1)C(C)C)C,538.15,12,"[1, 6, 8]",3,True,CHO,ester
10848,1-[2-[2-[(2-methylpropan-2-yl)oxy]ethoxy]ethoxy]butane,CCCCOCCOCCOC(C)(C)C,538.19,12,"[1, 6, 8]",3,True,CHO,ester
10849,2-(2-methyl-5-prop-1-en-2-ylcyclohex-2-en-1-yl)acetaldehyde,CC1=CCC(CC1CC=O)C(=C)C,538.4,12,"[1, 6, 8]",3,True,CHO,alkene
10850,"4,4,6-trimethyl-2-pentyl-1,3-dioxane",CCCCCC1OC(CC(O1)(C)C)C,538.51,12,"[1, 6, 8]",3,True,CHO,ester
10851,5-octyloxolan-2-one,CCCCCCCCC1CCC(=O)O1,539.12,12,"[1, 6, 8]",3,True,CHO,ester
10852,4-(cyclohexylmethyl)pyridine,C1CCC(CC1)CC2=CC=NC=C2,539.15,12,"[1, 6, 7]",3,True,CHN,aromatic
10853,dibenzo-p-dioxin,C1=CC=C2C(=C1)OC3=CC=CC=C3O2,539.15,12,"[1, 6, 8]",3,True,CHO,ester
10854,(E)-4-(3-methyl-2-bicyclo[2.2.1]hept-5-enyl)but-3-en-2-one,CC1C2CC(C1/C=C/C(=O)C)C=C2,539.76,12,"[1, 6, 8]",3,True,CHO,alkene
10855,(4-methylidene-1-propan-2-yl-3-bicyclo[3.1.0]hexanyl) acetate,CC(C)C12CC1C(=C)C(C2)OC(=O)C,540.15,12,"[1, 6, 8]",3,True,CHO,ester
10856,"ethyl (2E)-3,7-dimethylocta-2,6-dienoate",CCOC(=O)/C=C(\C)/CCC=C(C)C,540.46,12,"[1, 6, 8]",3,True,CHO,ester
10857,2-[di(propan-2-yl)amino]ethyl 2-methylprop-2-enoate,CC(C)N(CCOC(=O)C(=C)C)C(C)C,540.5,12,"[1, 6, 7, 8]",4,True,CHON,ester
10858,"1,1,3-triethoxyhexane",CCCC(CC(OCC)OCC)OCC,540.54,12,"[1, 6, 8]",3,True,CHO,ester
10859,[(Z)-hex-3-enyl] (E)-2-methylpent-2-enoate,CC/C=C\CCOC(=O)/C(=C/CC)/C,540.58,12,"[1, 6, 8]",3,True,CHO,ester
10860,bis(3-methylbutyl) oxalate,CC(C)CCOC(=O)C(=O)OCCC(C)C,540.65,12,"[1, 6, 8]",3,True,CHO,ester
10861,[(Z)-hex-3-enyl] (E)-hex-2-enoate,CCC/C=C/C(=O)OCC/C=C\CC,540.7,12,"[1, 6, 8]",3,True,CHO,ester
10862,"ethyl (2E,6E)-deca-2,6-dienoate",CCC/C=C/CC/C=C/C(=O)OCC,540.7,12,"[1, 6, 8]",3,True,CHO,ester
10863,2-phenoxyethyl 2-methylprop-2-enoate,CC(=C)C(=O)OCCOC1=CC=CC=C1,541.15,12,"[1, 6, 8]",3,True,CHO,ester
10864,"(1,3,3-trimethyl-2-bicyclo[2.2.1]heptanyl) acetate",CC(=O)OC1C(C2CCC1(C2)C)(C)C,541.27,12,"[1, 6, 8]",3,True,CHO,ester
10865,(2-methyl-6-propan-2-ylcyclohex-3-en-1-yl) acetate,CC1C=CCC(C1OC(=O)C)C(C)C,541.31,12,"[1, 6, 8]",3,True,CHO,ester
10866,2-cyclohexylcyclohexan-1-ol,C1CCC(CC1)C2CCCCC2O,541.65,12,"[1, 6, 8]",3,True,CHO,alcohol
10867,6-phenylhexan-2-one,CC(=O)CCCCC1=CC=CC=C1,541.65,12,"[1, 6, 8]",3,True,CHO,aromatic
10868,2-bicyclo[2.2.1]heptanylmethyl 2-methylprop-2-enoate,CC(=C)C(=O)OCC1CC2CCC1C2,542.02,12,"[1, 6, 8]",3,True,CHO,ester
10869,2-ethyl-3-methylquinoline,CCC1=NC2=CC=CC=C2C=C1C,542.15,12,"[1, 6, 7]",3,True,CHN,aromatic
10870,propan-2-yl (E)-3-phenylprop-2-enoate,CC(C)OC(=O)/C=C/C1=CC=CC=C1,542.15,12,"[1, 6, 8]",3,True,CHO,ester
10871,"2-heptyl-2,3-dihydropyran-6-one",CCCCCCCC1CC=CC(=O)O1,542.55,12,"[1, 6, 8]",3,True,CHO,ester
10872,"2,4,8-trimethylquinoline",CC1=C2C(=CC=C1)C(=CC(=N2)C)C,542.65,12,"[1, 6, 7]",3,True,CHN,aromatic
10873,"(4Z,8Z)-13-oxabicyclo[10.1.0]trideca-4,8-diene",C1/C=C\CCC2OC2CC/C=C\C1,542.8,12,"[1, 6, 8]",3,True,CHO,ester
10874,"1,6,11-triazatetracyclo[10.3.0.02,6.07,11]pentadecane",C1CC2N(C1)C3CCCN3C4N2CCC4,543.11,12,"[1, 6, 7]",3,True,CHN,amine
10875,5-[(Z)-oct-2-enyl]oxolan-2-one,CCCCC/C=C\CC1CCC(=O)O1,543.28,12,"[1, 6, 8]",3,True,CHO,ester