,Name,SMILES,Tb,C Atom,Atom,Count Unique Atom,Pass Screen,Atom2,Func. Group
9628,"6-butyl-2,4-dimethyl-3,6-dihydro-2H-pyran",CCCCC1C=C(CC(O1)C)C,497.25,11,"[1, 6, 8]",3,True,CHO,ester
9629,cycloundecyne,C1CCCCC#CCCCC1,497.31,11,"[1, 6]",2,True,CH,alkyne
9630,cyclohexyl pentanoate,CCCCC(=O)OC1CCCCC1,497.65,11,"[1, 6, 8]",3,True,CHO,ester
9631,prop-2-enyl octanoate,CCCCCCCC(=O)OCC=C,498.15,11,"[1, 6, 8]",3,True,CHO,ester
9632,"2,3-dimethyl-1H-indene",CC1=C(C2=CC=CC=C2C1)C,498.15,11,"[1, 6]",2,True,CH,alkene
9633,"2,5-dihydroxy-5-methyl-3-(piperidin-1-ylamino)cyclopent-2-en-1-one",CC1(CC(=C(C1=O)O)NN2CCCCC2)O,498.65,11,"[1, 6, 7, 8]",4,True,CHON,alkene
9634,"2,2,6,6-tetramethylheptan-4-one",CC(C)(C)CC(=O)CC(C)(C)C,498.69,11,"[1, 6, 8]",3,True,CHO,ketone
9635,1-ethyl-1H-indene,CCC1C=CC2=CC=CC=C12,499.15,11,"[1, 6]",2,True,CH,alkene
9636,"2,5-dimethyl-1-pentylpyrrole",CCCCCN1C(=CC=C1C)C,499.15,11,"[1, 6, 7]",3,True,CHN,aromatic
9637,2-methyldecanal,CCCCCCCCC(C)C=O,499.5,11,"[1, 6, 8]",3,True,CHO,aldehyde
9638,"N,N-dimethyl-2-(4-methylphenyl)ethanamine",CC1=CC=C(C=C1)CCN(C)C,499.65,11,"[1, 6, 7]",3,True,CHN,aromatic
9639,"(Z)-7,7-diethoxyhept-3-ene",CC/C=C\CCC(OCC)OCC,499.84,11,"[1, 6, 8]",3,True,CHO,ester
9640,"1,1-diethoxyhept-2-ene",CCCCC=CC(OCC)OCC,499.84,11,"[1, 6, 8]",3,True,CHO,ester
9641,"(Z)-9,9-dimethoxynon-3-ene",CC/C=C\CCCCC(OC)OC,499.84,11,"[1, 6, 8]",3,True,CHO,ester
9642,1-methyl-6-methylideneazecane,CN1CCCCC(=C)CCCC1,499.91,11,"[1, 6, 7]",3,True,CHN,alkene
9643,(4-methoxyphenyl)methyl propanoate,CCC(=O)OCC1=CC=C(C=C1)OC,500.15,11,"[1, 6, 8]",3,True,CHO,ester
9644,"2-pentan-3-yloxycyclohexa-1,3-diene",CCC(CC)OC1=CCCC=C1,500.78,11,"[1, 6, 8]",3,True,CHO,ester
9645,"1-pentan-3-yloxycyclohexa-1,4-diene",CCC(CC)OC1=CCC=CC1,500.78,11,"[1, 6, 8]",3,True,CHO,ester
9646,"2,6-dimethyl-4-(3-methylbutyl)morpholine",CC1CN(CC(O1)C)CCC(C)C,500.84,11,"[1, 6, 7, 8]",4,True,CHON,ester
9647,2-butyl-4-methylphenol,CCCCC1=C(C=CC(=C1)C)O,501.15,11,"[1, 6, 8]",3,True,CHO,aromatic
9648,undecan-2-ol,CCCCCCCCCC(C)O,501.15,11,"[1, 6, 8]",3,True,CHO,alcohol
9649,"bicyclo[4.4.1]undeca-1,3,5,7,9-pentaene",C1C2=CC=CC=C1C=CC=C2,501.21,11,"[1, 6]",2,True,CH,alkene
9650,"bicyclo[5.3.1]undeca-1(10),2,4,6,8-pentaene",C1C2=CC=CC1=CC=CC=C2,501.21,11,"[1, 6]",2,True,CH,alkene
9651,"3,4-dimethyl-6-(2-methylprop-1-enyl)-3,6-dihydro-2H-pyran",CC1COC(C=C1C)C=C(C)C,501.29,11,"[1, 6, 8]",3,True,CHO,ester
9652,N-ethylnonan-1-amine,CCCCCCCCCNCC,501.45,11,"[1, 6, 7]",3,True,CHN,amine
9653,"2,3,3-trimethylindole",CC1=NC2=CC=CC=C2C1(C)C,501.6,11,"[1, 6, 7]",3,True,CHN,aromatic
9654,"N,N-dimethyl-1,1-bis[(2-methylpropan-2-yl)oxy]methanamine",CC(C)(C)OC(N(C)C)OC(C)(C)C,501.66,11,"[1, 6, 7, 8]",4,True,CHON,ester
9655,"8,8-dimethoxynon-3-yne",CCC#CCCCC(C)(OC)OC,501.89,11,"[1, 6, 8]",3,True,CHO,ester
9656,undecan-3-ol,CCCCCCCCC(CC)O,502.15,11,"[1, 6, 8]",3,True,CHO,alcohol
9657,1-butoxy-3-methylbenzene,CCCCOC1=CC=CC(=C1)C,502.35,11,"[1, 6, 8]",3,True,CHO,ester
9658,ethyl 2-phenylpropanoate,CCOC(=O)C(C)C1=CC=CC=C1,502.65,11,"[1, 6, 8]",3,True,CHO,ester
9659,"2,2-dimethylpentyl 2-methylprop-2-enoate",CCCC(C)(C)COC(=O)C(=C)C,502.83,11,"[1, 6, 8]",3,True,CHO,ester
9660,"bicyclo[4.4.1]undeca-1,3,5-triene",C1CCC2=CC=CC=C(C1)C2,502.89,11,"[1, 6]",2,True,CH,alkene
9661,"ethenyl 6,6-dimethylheptanoate",CC(C)(C)CCCCC(=O)OC=C,502.95,11,"[1, 6, 8]",3,True,CHO,ester
9662,"2,6-diethyl-N-methylaniline",CCC1=C(C(=CC=C1)CC)NC,503.15,11,"[1, 6, 7]",3,True,CHN,aromatic
9663,"4,8-dimethylnon-7-enal",CC(CCC=C(C)C)CCC=O,503.54,11,"[1, 6, 8]",3,True,CHO,alkene
9664,2-(6-methoxy-6-methylheptan-2-yl)oxirane,CC(CCCC(C)(C)OC)C1CO1,503.72,11,"[1, 6, 8]",3,True,CHO,ester
9665,"methyl pentacyclo[4.3.0.02,5.03,8.04,7]nonane-4-carboxylate",COC(=O)C12C3C4C1C5C2C3C5C4,503.81,11,"[1, 6, 8]",3,True,CHO,ester
9666,"(2E,4E)-1,1-diethoxyhepta-2,4-diene",CC/C=C/C=C/C(OCC)OCC,504.0,11,"[1, 6, 8]",3,True,CHO,ester
9667,(E)-undec-2-enal,CCCCCCCC/C=C/C=O,504.1,11,"[1, 6, 8]",3,True,CHO,alkene
9668,(Z)-undec-4-enal,CCCCCC/C=C\CCC=O,504.1,11,"[1, 6, 8]",3,True,CHO,alkene
9669,1-methoxy-4-(2-methylprop-1-enyl)benzene,CC(=CC1=CC=C(C=C1)OC)C,504.15,11,"[1, 6, 8]",3,True,CHO,ester
9670,"1,1-dimethoxynon-2-yne",CCCCCCC#CC(OC)OC,504.68,11,"[1, 6, 8]",3,True,CHO,ester
9671,"1,1-diethoxyhept-2-yne",CCCCC#CC(OCC)OCC,504.68,11,"[1, 6, 8]",3,True,CHO,ester
9672,3-butylheptan-2-one,CCCCC(CCCC)C(=O)C,504.71,11,"[1, 6, 8]",3,True,CHO,ketone
9673,2-methyldecan-3-one,CCCCCCCC(=O)C(C)C,504.71,11,"[1, 6, 8]",3,True,CHO,ketone
9674,2-methyldecan-4-one,CCCCCCC(=O)CC(C)C,504.71,11,"[1, 6, 8]",3,True,CHO,ketone
9675,"2,2-dimethoxy-3,3-dimethylbicyclo[2.2.1]heptane",CC1(C2CCC(C2)C1(OC)OC)C,505.01,11,"[1, 6, 8]",3,True,CHO,ester
9676,undecan-4-one,CCCCCCCC(=O)CCC,505.15,11,"[1, 6, 8]",3,True,CHO,ketone
9677,6-methyl-3-prop-2-enylhept-5-en-2-one,CC(=CCC(CC=C)C(=O)C)C,505.43,11,"[1, 6, 8]",3,True,CHO,alkene
9678,2-methylhexyl 2-methylprop-2-enoate,CCCCC(C)COC(=O)C(=C)C,505.62,11,"[1, 6, 8]",3,True,CHO,ester
9679,6-methylheptyl prop-2-enoate,CC(C)CCCCCOC(=O)C=C,505.74,11,"[1, 6, 8]",3,True,CHO,ester
9680,non-1-en-3-yl acetate,CCCCCCC(C=C)OC(=O)C,505.74,11,"[1, 6, 8]",3,True,CHO,ester
9681,2-methylheptyl prop-2-enoate,CCCCCC(C)COC(=O)C=C,505.74,11,"[1, 6, 8]",3,True,CHO,ester
9682,"3,3,5-trimethylhexyl acetate",CC(C)CC(C)(C)CCOC(=O)C,505.83,11,"[1, 6, 8]",3,True,CHO,ester
9683,"4-ethyl-2,2,5-trimethylhex-4-en-3-one",CCC(=C(C)C)C(=O)C(C)(C)C,505.84,11,"[1, 6, 8]",3,True,CHO,alkene
9684,"4-methyl-6-pent-2-en-2-yl-3,6-dihydro-2H-pyran",CCC=C(C)C1C=C(CCO1)C,505.96,11,"[1, 6, 8]",3,True,CHO,ester
9685,"4-methyl-2-pent-2-en-2-yl-3,6-dihydro-2H-pyran",CCC=C(C)C1CC(=CCO1)C,505.96,11,"[1, 6, 8]",3,True,CHO,ester
9686,heptyl 2-methylprop-2-enoate,CCCCCCCOC(=O)C(=C)C,506.06,11,"[1, 6, 8]",3,True,CHO,ester
9687,ethenyl nonanoate,CCCCCCCCC(=O)OC=C,506.18,11,"[1, 6, 8]",3,True,CHO,ester
9688,"methyl 2,2-dimethyloctanoate",CCCCCCC(C)(C)C(=O)OC,506.27,11,"[1, 6, 8]",3,True,CHO,ester
9689,methyl 2-methyl-2-propylhexanoate,CCCCC(C)(CCC)C(=O)OC,506.27,11,"[1, 6, 8]",3,True,CHO,ester
9690,"butyl 4,4-dimethylpentanoate",CCCCOC(=O)CCC(C)(C)C,506.27,11,"[1, 6, 8]",3,True,CHO,ester
9691,2-(2-ethylhexoxymethyl)oxirane,CCCCC(CC)COCC1CO1,506.95,11,"[1, 6, 8]",3,True,CHO,ester
9692,2-(6-methylheptoxymethyl)oxirane,CC(C)CCCCCOCC1CO1,506.95,11,"[1, 6, 8]",3,True,CHO,ester
9693,"methyl 2-ethenyl-2,5-dimethylhex-4-enoate",CC(=CCC(C)(C=C)C(=O)OC)C,506.99,11,"[1, 6, 8]",3,True,CHO,ester
9694,bis(3-methylbutyl) carbonate,CC(C)CCOC(=O)OCCC(C)C,507.15,11,"[1, 6, 8]",3,True,CHO,ester
9695,"3,7-dimethylnona-2,6-dienal",CCC(=CCCC(=CC=O)C)C,508.02,11,"[1, 6, 8]",3,True,CHO,alkene
9696,"1,1-dibutoxy-N,N-dimethylmethanamine",CCCCOC(N(C)C)OCCCC,508.12,11,"[1, 6, 7, 8]",4,True,CHON,ester
9697,4-tert-butyl-3-methylphenol,CC1=C(C=CC(=C1)O)C(C)(C)C,508.15,11,"[1, 6, 8]",3,True,CHO,aromatic
9698,1-benzylpyrrolidine,C1CCN(C1)CC2=CC=CC=C2,508.15,11,"[1, 6, 7]",3,True,CHN,aromatic
9699,"dimethyl 2,2-bis(prop-2-enyl)propanedioate",COC(=O)C(CC=C)(CC=C)C(=O)OC,508.15,11,"[1, 6, 8]",3,True,CHO,ester
9700,"(2E,4E)-undeca-2,4-dienal",CCCCCC/C=C/C=C/C=O,508.26,11,"[1, 6, 8]",3,True,CHO,alkene
9701,"8-methoxy-1,2,3,4,4a,5,6,8a-octahydronaphthalene",COC1=CCCC2C1CCCC2,508.4,11,"[1, 6, 8]",3,True,CHO,ester
9702,(4-ethyl-3-methylhexyl) acetate,CCC(CC)C(C)CCOC(=O)C,508.62,11,"[1, 6, 8]",3,True,CHO,ester
9703,"(E)-6,8-dimethylnon-5-en-2-one",CC(C)C/C(=C/CCC(=O)C)/C,508.75,11,"[1, 6, 8]",3,True,CHO,alkene
9704,heptyl 2-methylpropanoate,CCCCCCCOC(=O)C(C)C,509.06,11,"[1, 6, 8]",3,True,CHO,ester
9705,2-methylbutyl hexanoate,CCCCCC(=O)OCC(C)CC,509.06,11,"[1, 6, 8]",3,True,CHO,ester
9706,2-ethylhexyl propanoate,CCCCC(CC)COC(=O)CC,509.06,11,"[1, 6, 8]",3,True,CHO,ester
9707,pentyl 2-methylpentanoate,CCCCCOC(=O)C(C)CCC,509.06,11,"[1, 6, 8]",3,True,CHO,ester
9708,nonan-2-yl acetate,CCCCCCCC(C)OC(=O)C,509.06,11,"[1, 6, 8]",3,True,CHO,ester
9709,pentyl 4-methylpentanoate,CCCCCOC(=O)CCC(C)C,509.06,11,"[1, 6, 8]",3,True,CHO,ester
9710,heptan-2-yl butanoate,CCCCCC(C)OC(=O)CCC,509.06,11,"[1, 6, 8]",3,True,CHO,ester
9711,methyl 2-methylnonanoate,CCCCCCCC(C)C(=O)OC,509.06,11,"[1, 6, 8]",3,True,CHO,ester
9712,6-methylheptyl propanoate,CCC(=O)OCCCCCC(C)C,509.06,11,"[1, 6, 8]",3,True,CHO,ester
9713,butan-2-yl heptanoate,CCCCCCC(=O)OC(C)CC,509.06,11,"[1, 6, 8]",3,True,CHO,ester
9714,4-butyl-2-methylphenol,CCCCC1=CC(=C(C=C1)O)C,509.15,11,"[1, 6, 8]",3,True,CHO,aromatic
9715,3-methyl-1-phenylbutan-1-ol,CC(C)CC(C1=CC=CC=C1)O,509.15,11,"[1, 6, 8]",3,True,CHO,aromatic
9716,4-phenylmethoxybutan-1-ol,C1=CC=C(C=C1)COCCCCO,509.15,11,"[1, 6, 8]",3,True,CHO,ester
9717,undec-3-en-2-one,CCCCCCCC=CC(=O)C,509.31,11,"[1, 6, 8]",3,True,CHO,alkene
9718,"2,4-ditert-butyl-1,3-dioxolane",CC(C)(C)C1COC(O1)C(C)(C)C,509.33,11,"[1, 6, 8]",3,True,CHO,ester
9719,3-methyl-1-phenylbutan-2-one,CC(C)C(=O)CC1=CC=CC=C1,510.15,11,"[1, 6, 8]",3,True,CHO,aromatic
9720,2-but-3-en-2-ylcyclohex-3-ene-1-carbaldehyde,CC(C=C)C1C=CCCC1C=O,510.22,11,"[1, 6, 8]",3,True,CHO,alkene
9721,"methyl (E)-2,2,5-trimethylhept-4-enoate",CC/C(=C/CC(C)(C)C(=O)OC)/C,510.31,11,"[1, 6, 8]",3,True,CHO,ester
9722,2-tert-butyl-6-methylaniline,CC1=C(C(=CC=C1)C(C)(C)C)N,510.65,11,"[1, 6, 7]",3,True,CHN,aromatic
9723,1-methyl-2-prop-1-en-2-ylcyclohex-3-ene-1-carbaldehyde,CC(=C)C1C=CCCC1(C)C=O,510.78,11,"[1, 6, 8]",3,True,CHO,alkene
9724,"2-hexyl-4,5-dimethyl-1,3-dioxolane",CCCCCCC1OC(C(O1)C)C,511.12,11,"[1, 6, 8]",3,True,CHO,ester
9725,1-phenylpentan-2-one,CCCC(=O)CC1=CC=CC=C1,511.15,11,"[1, 6, 8]",3,True,CHO,aromatic
9726,"methyl 2,2-dimethyl-3-(2-methylprop-1-enyl)cyclopropane-1-carboxylate",CC(=CC1C(C1(C)C)C(=O)OC)C,511.18,11,"[1, 6, 8]",3,True,CHO,ester
9727,5-hexyl-4-methyloxolan-2-one,CCCCCCC1C(CC(=O)O1)C,511.57,11,"[1, 6, 8]",3,True,CHO,ester
9728,"tert-butyl N,N-bis(prop-2-enyl)carbamate",CC(C)(C)OC(=O)N(CC=C)CC=C,512.07,11,"[1, 6, 7, 8]",4,True,CHON,ester
9729,dipentyl carbonate,CCCCCOC(=O)OCCCCC,512.15,11,"[1, 6, 8]",3,True,CHO,ester
9730,3-(2-bicyclo[2.2.1]heptanyl)-2-methylpropanal,CC(CC1CC2CCC1C2)C=O,512.58,11,"[1, 6, 8]",3,True,CHO,aldehyde
9731,"methyl 3,7-dimethyloct-6-enoate",CC(CCC=C(C)C)CC(=O)OC,513.1,11,"[1, 6, 8]",3,True,CHO,ester
9732,"2-(2-methylpropyl)-1,3-benzoxazole",CC(C)CC1=NC2=CC=CC=C2O1,513.15,11,"[1, 6, 7, 8]",4,True,CHON,aromatic
9733,[(Z)-hex-3-enyl] 3-methylbutanoate,CC/C=C\CCOC(=O)CC(C)C,513.22,11,"[1, 6, 8]",3,True,CHO,ester
9734,[(Z)-hex-3-enyl] 2-methylbutanoate,CC/C=C\CCOC(=O)C(C)CC,513.22,11,"[1, 6, 8]",3,True,CHO,ester
9735,3-methylbutyl (E)-hex-2-enoate,CCC/C=C/C(=O)OCCC(C)C,513.22,11,"[1, 6, 8]",3,True,CHO,ester
9736,2-phenylpiperidine,C1CCNC(C1)C2=CC=CC=C2,513.4,11,"[1, 6, 7]",3,True,CHN,aromatic
9737,"(3E,5E)-undeca-3,5-dien-2-one",CCCCC/C=C/C=C/C(=O)C,513.47,11,"[1, 6, 8]",3,True,CHO,alkene
9738,hexyl (E)-2-methylbut-2-enoate,CCCCCCOC(=O)/C(=C/C)/C,513.54,11,"[1, 6, 8]",3,True,CHO,ester
9739,hexyl 3-methylbut-2-enoate,CCCCCCOC(=O)C=C(C)C,513.54,11,"[1, 6, 8]",3,True,CHO,ester
9740,3-methylbut-2-enyl hexanoate,CCCCCC(=O)OCC=C(C)C,513.54,11,"[1, 6, 8]",3,True,CHO,ester
9741,cyclohexyl 3-methylbutanoate,CC(C)CC(=O)OC1CCCCC1,513.65,11,"[1, 6, 8]",3,True,CHO,ester
9742,methyl (E)-dec-2-enoate,CCCCCCC/C=C/C(=O)OC,513.66,11,"[1, 6, 8]",3,True,CHO,ester
9743,[(E)-non-3-enyl] acetate,CCCCC/C=C/CCOC(=O)C,513.66,11,"[1, 6, 8]",3,True,CHO,ester
9744,ethyl (E)-non-2-enoate,CCCCCC/C=C/C(=O)OCC,513.66,11,"[1, 6, 8]",3,True,CHO,ester
9745,[(E)-non-2-enyl] acetate,CCCCCC/C=C/COC(=O)C,513.66,11,"[1, 6, 8]",3,True,CHO,ester
9746,[(Z)-hex-3-enyl] pentanoate,CCCCC(=O)OCC/C=C\CC,513.66,11,"[1, 6, 8]",3,True,CHO,ester
9747,[(E)-hex-2-enyl] pentanoate,CCCCC(=O)OC/C=C/CCC,513.66,11,"[1, 6, 8]",3,True,CHO,ester
9748,2-(4-propan-2-ylcyclohexyl)acetaldehyde,CC(C)C1CCC(CC1)CC=O,514.38,11,"[1, 6, 8]",3,True,CHO,aldehyde
9749,"4-(dimethoxymethyl)-1,3-dimethylcyclohexene",CC1C=C(CCC1C(OC)OC)C,514.7,11,"[1, 6, 8]",3,True,CHO,ester
9750,"2,3-ditert-butylcyclopropan-1-one",CC(C)(C)C1C(C1=O)C(C)(C)C,514.71,11,"[1, 6, 8]",3,True,CHO,ketone
9751,4-butoxybenzonitrile,CCCCOC1=CC=C(C=C1)C#N,515.15,11,"[1, 6, 7, 8]",4,True,CHON,ester
9752,"2-butyl-4,4,6-trimethyl-1,3-dioxane",CCCCC1OC(CC(O1)(C)C)C,515.63,11,"[1, 6, 8]",3,True,CHO,ester
9753,(4-methylphenyl) butanoate,CCCC(=O)OC1=CC=C(C=C1)C,515.65,11,"[1, 6, 8]",3,True,CHO,ester
9754,2-pentan-2-ylphenol,CCCC(C)C1=CC=CC=C1O,515.74,11,"[1, 6, 8]",3,True,CHO,aromatic
9755,(E)-3-(2-bicyclo[2.2.1]hept-5-enyl)-2-methylprop-2-enal,C/C(=C\C1CC2CC1C=C2)/C=O,516.22,11,"[1, 6, 8]",3,True,CHO,alkene
9756,5-hexyl-5-methyloxolan-2-one,CCCCCCC1(CCC(=O)O1)C,516.48,11,"[1, 6, 8]",3,True,CHO,ester
9757,ethyl 2-phenoxypropanoate,CCOC(=O)C(C)OC1=CC=CC=C1,516.65,11,"[1, 6, 8]",3,True,CHO,ester
9758,ethyl 3-methylbicyclo[2.2.1]hept-5-ene-2-carboxylate,CCOC(=O)C1C(C2CC1C=C2)C,517.07,11,"[1, 6, 8]",3,True,CHO,ester
9759,"2,6-dimethylhepta-2,5-dien-4-yl acetate",CC(=CC(C=C(C)C)OC(=O)C)C,517.14,11,"[1, 6, 8]",3,True,CHO,ester
9760,"2-tert-butyl-2,5,5-trimethyl-1,3-dioxane",CC1(COC(OC1)(C)C(C)(C)C)C,517.31,11,"[1, 6, 8]",3,True,CHO,ester
9761,"[(2E,4E)-hexa-2,4-dienyl] 3-methylbutanoate",C/C=C/C=C/COC(=O)CC(C)C,517.38,11,"[1, 6, 8]",3,True,CHO,ester
9762,"2-(6,6-dimethyl-2-bicyclo[3.1.1]hept-2-enyl)acetaldehyde",CC1(C2CC=C(C1C2)CC=O)C,517.4,11,"[1, 6, 8]",3,True,CHO,alkene
9763,"methyl (2E)-3,7-dimethylocta-2,6-dienoate",CC(=CCC/C(=C/C(=O)OC)/C)C,517.58,11,"[1, 6, 8]",3,True,CHO,ester
9764,"N,N-dibutylpropanamide",CCCCN(CCCC)C(=O)CC,517.59,11,"[1, 6, 7, 8]",4,True,CHON,amide
9765,"N,N-dimethylnonanamide",CCCCCCCCC(=O)N(C)C,517.59,11,"[1, 6, 7, 8]",4,True,CHON,amide
9766,"1,1,3-triethoxypentane",CCC(CC(OCC)OCC)OCC,517.66,11,"[1, 6, 8]",3,True,CHO,ester
9767,[(Z)-hex-3-enyl] (E)-2-methylbut-2-enoate,CC/C=C\CCOC(=O)/C(=C/C)/C,517.7,11,"[1, 6, 8]",3,True,CHO,ester
9768,"methyl (2E,4E)-deca-2,4-dienoate",CCCCC/C=C/C=C/C(=O)OC,517.82,11,"[1, 6, 8]",3,True,CHO,ester
9769,"[(3E,6Z)-nona-3,6-dienyl] acetate",CC/C=C\C/C=C/CCOC(=O)C,517.82,11,"[1, 6, 8]",3,True,CHO,ester
9770,"8-methoxy-1,2,3,4,4a,5,6,7-octahydronaphthalene",COC1=C2CCCCC2CCC1,518.05,11,"[1, 6, 8]",3,True,CHO,ester
9771,ethyl non-2-ynoate,CCCCCCC#CC(=O)OCC,518.5,11,"[1, 6, 8]",3,True,CHO,ester
9772,2-cyclohexylpyridine,C1CCC(CC1)C2=CC=CC=N2,518.65,11,"[1, 6, 7]",3,True,CHN,aromatic
9773,3-methyl-2-phenylbutanenitrile,CC(C)C(C#N)C1=CC=CC=C1,519.15,11,"[1, 6, 7]",3,True,CHN,aromatic
9774,2-butan-2-yl-5-methylphenol,CCC(C)C1=C(C=C(C=C1)C)O,519.15,11,"[1, 6, 8]",3,True,CHO,aromatic
9775,"1-(1,2,2-trimethylcyclohex-3-en-1-yl)ethanone",CC(=O)C1(CCC=CC1(C)C)C,519.67,11,"[1, 6, 8]",3,True,CHO,alkene
9776,"1-(1,5,5-trimethylcyclohex-3-en-1-yl)ethanone",CC(=O)C1(CC=CC(C1)(C)C)C,519.67,11,"[1, 6, 8]",3,True,CHO,alkene
9777,"(2,4-dimethylcyclohexyl)methyl acetate",CC1CCC(C(C1)C)COC(=O)C,519.71,11,"[1, 6, 8]",3,True,CHO,ester
9778,"2-hexyl-4-methyl-1,3-dioxane",CCCCCCC1OCCC(O1)C,520.06,11,"[1, 6, 8]",3,True,CHO,ester
9779,"5-hexyl-2-methyl-1,3-dioxane",CCCCCCC1COC(OC1)C,520.06,11,"[1, 6, 8]",3,True,CHO,ester
9780,"2-hexyl-5-methyl-1,3-dioxane",CCCCCCC1OCC(CO1)C,520.06,11,"[1, 6, 8]",3,True,CHO,ester
9781,2-hexoxyoxane,CCCCCCOC1CCCCO1,520.2,11,"[1, 6, 8]",3,True,CHO,ester
9782,"1,7-diazabicyclo[5.3.3]tridecane",C1CCN2CCCN(CC1)CCC2,520.33,11,"[1, 6, 7]",3,True,CHN,amine
9783,"1,7-diazabicyclo[5.4.2]tridecane",C1CCN2CCCCN(CC1)CC2,520.33,11,"[1, 6, 7]",3,True,CHN,amine
9784,"1,8-diazabicyclo[6.3.2]tridecane",C1CCCN2CCCN(CC1)CC2,520.33,11,"[1, 6, 7]",3,True,CHN,amine
9785,6-hexyloxan-2-one,CCCCCCC1CCCC(=O)O1,520.51,11,"[1, 6, 8]",3,True,CHO,ester
9786,3-(dibutylamino)propan-1-ol,CCCCN(CCCC)CCCO,520.65,11,"[1, 6, 7, 8]",4,True,CHON,alcohol
9787,"1,4-diethoxy-2-methylbenzene",CCOC1=CC(=C(C=C1)OCC)C,521.15,11,"[1, 6, 8]",3,True,CHO,ester
9788,N-methyladamantan-1-amine,CNC12CC3CC(C1)CC(C3)C2,521.51,11,"[1, 6, 7]",3,True,CHN,amine
9789,"ethyl N,N-dibutylcarbamate",CCCCN(CCCC)C(=O)OCC,521.94,11,"[1, 6, 7, 8]",4,True,CHON,ester
9790,1-oxaspiro[4.7]dodecane,C1CCCC2(CCC1)CCCO2,522.24,11,"[1, 6, 8]",3,True,CHO,ester
9791,diethyl 2-butanoylpropanedioate,CCCC(=O)C(C(=O)OCC)C(=O)OCC,522.65,11,"[1, 6, 8]",3,True,CHO,ester
9792,5-ethylnonan-2-amine,CCCCC(CC)CCC(C)N,522.93,11,"[1, 6, 7]",3,True,CHN,amine
9793,"5-methyl-3-phenyl-1,2-oxazole-4-carboxylic acid",CC1=C(C(=NO1)C2=CC=CC=C2)C(=O)O,523.15,11,"[1, 6, 7, 8]",4,True,CHON,aromatic
9794,undecan-2-amine,CCCCCCCCCC(C)N,523.37,11,"[1, 6, 7]",3,True,CHN,amine
9795,undecan-6-amine,CCCCCC(CCCCC)N,523.37,11,"[1, 6, 7]",3,True,CHN,amine
9796,"4,5-dimethyl-2-propan-2-ylphenol",CC1=CC(=C(C=C1C)O)C(C)C,523.4,11,"[1, 6, 8]",3,True,CHO,aromatic
9797,"3-(1,3-dimethylcyclohex-3-en-1-yl)propanal",CC1=CCCC(C1)(C)CCC=O,523.87,11,"[1, 6, 8]",3,True,CHO,alkene
9798,1-(4-methylcyclohexyl)ethyl acetate,CC1CCC(CC1)C(C)OC(=O)C,523.94,11,"[1, 6, 8]",3,True,CHO,ester
9799,ethyl 2-ethoxybenzoate,CCOC1=CC=CC=C1C(=O)OCC,524.15,11,"[1, 6, 8]",3,True,CHO,ester
9800,1-(2-hydroxy-5-methylphenyl)-2-methylpropan-1-one,CC1=CC(=C(C=C1)O)C(=O)C(C)C,524.15,11,"[1, 6, 8]",3,True,CHO,ketone
9801,5-but-1-enyl-5-ethyloxan-2-one,CCC=CC1(CCC(=O)OC1)CC,524.91,11,"[1, 6, 8]",3,True,CHO,ester
9802,"tert-butyl 4,4-dimethylpentaneperoxoate",CC(C)(C)CCC(=O)OOC(C)(C)C,525.46,11,"[1, 6, 8]",3,True,CHO,ester
9803,prop-2-enyl 2-cyclohexylacetate,C=CCOC(=O)CC1CCCCC1,525.73,11,"[1, 6, 8]",3,True,CHO,ester
9804,8-methyl-N-propyl-8-azabicyclo[3.2.1]octan-3-amine,CCCNC1CC2CCC(C1)N2C,526.97,11,"[1, 6, 7]",3,True,CHN,amine
9805,ethyl N-ethyl-N-phenylcarbamate,CCN(C1=CC=CC=C1)C(=O)OCC,527.15,11,"[1, 6, 7, 8]",4,True,CHON,ester
9806,"(2,6,6-trimethyl-3-bicyclo[3.1.1]heptanyl)methanamine",CC1C(CC2CC1C2(C)C)CN,527.79,11,"[1, 6, 7]",3,True,CHN,amine
9807,4-(3-methylbutyl)phenol,CC(C)CCC1=CC=C(C=C1)O,528.15,11,"[1, 6, 8]",3,True,CHO,aromatic
9808,2-phenylpentanenitrile,CCCC(C#N)C1=CC=CC=C1,528.15,11,"[1, 6, 7]",3,True,CHN,aromatic
9809,"2-hexyl-4,7-dihydro-1,3-dioxepine",CCCCCCC1OCC=CCO1,528.16,11,"[1, 6, 8]",3,True,CHO,ester
9810,1-cyclohexylpropyl acetate,CCC(C1CCCCC1)OC(=O)C,528.61,11,"[1, 6, 8]",3,True,CHO,ester
9811,methyl 2-cyclohexylbutanoate,CCC(C1CCCCC1)C(=O)OC,528.61,11,"[1, 6, 8]",3,True,CHO,ester
9812,"5,5-dimethyl-2-[(1E,3E)-penta-1,3-dienyl]-1,3-dioxane",C/C=C/C=C/C1OCC(CO1)(C)C,528.62,11,"[1, 6, 8]",3,True,CHO,ester
9813,"2-(2,6,6-trimethylcyclohexen-1-yl)acetaldehyde",CC1=C(C(CCC1)(C)C)CC=O,528.85,11,"[1, 6, 8]",3,True,CHO,alkene
9814,"4-methyl-4-phenyl-1,3-dioxane",CC1(CCOCO1)C2=CC=CC=C2,529.15,11,"[1, 6, 8]",3,True,CHO,ester
9815,"2-hexyl-1,3-dioxacyclohept-5-yne",CCCCCCC1OCC#CCO1,529.46,11,"[1, 6, 8]",3,True,CHO,ester
9816,"1,3-bis(dimethylamino)propan-2-yl 2-methylprop-2-enoate",CC(=C)C(=O)OC(CN(C)C)CN(C)C,530.5,11,"[1, 6, 7, 8]",4,True,CHON,ester
9817,"1-methyl-5-propan-2-yl-2,4-dioxabicyclo[3.2.2]non-6-ene",CC(C)C12CCC(C=C1)(OCO2)C,530.67,11,"[1, 6, 8]",3,True,CHO,ester
9818,4-tert-butylbenzonitrile,CC(C)(C)C1=CC=C(C=C1)C#N,531.15,11,"[1, 6, 7]",3,True,CHN,aromatic
9819,diethyl 3-methylhexanedioate,CCOC(=O)CCC(C)CC(=O)OCC,531.15,11,"[1, 6, 8]",3,True,CHO,ester
9820,"1-methyl-5-propan-2-yl-2,4-dioxabicyclo[3.2.2]nonane",CC(C)C12CCC(CC1)(OCO2)C,531.51,11,"[1, 6, 8]",3,True,CHO,ester
9821,propyl 2-phenylacetate,CCCOC(=O)CC1=CC=CC=C1,531.65,11,"[1, 6, 8]",3,True,CHO,ester
9822,8-ethyl-1-oxaspiro[4.5]decan-2-one,CCC1CCC2(CC1)CCC(=O)O2,531.76,11,"[1, 6, 8]",3,True,CHO,ester
9823,"4,4,7a-trimethyl-6,7-dihydro-5H-1-benzofuran-2-one",CC1(CCCC2(C1=CC(=O)O2)C)C,531.87,11,"[1, 6, 8]",3,True,CHO,ester
9824,"2,2-dimethyl-5-methylideneoct-7-en-3-ol",CC(C)(C)C(CC(=C)CC=C)O,533.03,11,"[1, 6, 8]",3,True,CHO,alkene
9825,undec-1-yn-4-ol,CCCCCCCC(CC#C)O,533.14,11,"[1, 6, 8]",3,True,CHO,alkyne
9826,"2,3,5,6-tetramethylidenebicyclo[2.2.1]heptan-7-one",C=C1C2C(=C)C(=C)C(C1=C)C2=O,533.49,11,"[1, 6, 8]",3,True,CHO,alkene
9827,undec-10-yn-1-ol,C#CCCCCCCCCCO,533.58,11,"[1, 6, 8]",3,True,CHO,alkyne
9828,2-(4-methylpentyl)cyclopentan-1-one,CC(C)CCCC1CCCC1=O,533.94,11,"[1, 6, 8]",3,True,CHO,ketone