,Name,SMILES,Tb,C Atom,Atom,Count Unique Atom,Pass Screen,Atom2,Func. Group
6156,"7-methoxycyclohepta-1,3,5-triene",COC1C=CC=CC=C1,426.36,8,"[1, 6, 8]",3,True,CHO,ester
6157,"2,2,3-trimethylpentan-3-ol",CCC(C)(C(C)(C)C)O,426.41115,8,"[1, 6, 8]",3,True,CHO,alcohol
6158,2-methylheptan-3-ol,CCCCC(C(C)C)O,426.65,8,"[1, 6, 8]",3,True,CHO,alcohol
6159,2-methoxybicyclo[2.2.1]hept-2-ene,COC1=CC2CCC1C2,426.95,8,"[1, 6, 8]",3,True,CHO,ester
6160,3-ethyl-4-methylpentan-2-one,CCC(C(C)C)C(=O)C,427.0,8,"[1, 6, 8]",3,True,CHO,ketone
6161,1-butylperoxybutane,CCCCOOCCCC,427.48,8,"[1, 6, 8]",3,True,CHO,ester
6162,"1,4-diethoxybutane",CCOCCCCOCC,427.48,8,"[1, 6, 8]",3,True,CHO,ester
6163,"2,2-dimethylhexanal",CCCCC(C)(C)C=O,428.07,8,"[1, 6, 8]",3,True,CHO,aldehyde
6164,"1,3-diazatricyclo[3.3.1.13,7]decane",C1C2CN3CC1CN(C2)C3,428.14,8,"[1, 6, 7]",3,True,CHN,amine
6165,N-propylpentan-1-amine,CCCCCNCCC,428.15,8,"[1, 6, 7]",3,True,CHN,amine
6166,"ethyl 2,3-dimethylbut-2-enoate",CCOC(=O)C(=C(C)C)C,428.15,8,"[1, 6, 8]",3,True,CHO,ester
6167,2-propyloxane,CCCC1CCCCO1,429.14,8,"[1, 6, 8]",3,True,CHO,ester
6168,"1,2,2-trimethylcyclopentan-1-ol",CC1(CCCC1(C)O)C,429.15,8,"[1, 6, 8]",3,True,CHO,alcohol
6169,1-(1-ethoxyethoxy)-2-methylpropane,CCOC(C)OCC(C)C,429.65,8,"[1, 6, 8]",3,True,CHO,ester
6170,hexan-2-yl acetate,CCCCC(C)OC(=O)C,430.65,8,"[1, 6, 8]",3,True,CHO,ester
6171,N-prop-2-enylcyclopentanamine,C=CCNC1CCCC1,430.65,8,"[1, 6, 7]",3,True,CHN,alkene
6172,5-methylheptanal,CCC(C)CCCC=O,430.86,8,"[1, 6, 8]",3,True,CHO,aldehyde
6173,4-ethylhexanal,CCC(CC)CCC=O,430.86,8,"[1, 6, 8]",3,True,CHO,aldehyde
6174,"1,1-dimethoxyhexane",CCCCCC(OC)OC,431.15,8,"[1, 6, 8]",3,True,CHO,ester
6175,"3,4-dimethylhex-3-en-2-one",CCC(=C(C)C(=O)C)C,431.15,8,"[1, 6, 8]",3,True,CHO,alkene
6176,3-methylbutyl prop-2-enoate,CC(C)CCOC(=O)C=C,431.15,8,"[1, 6, 8]",3,True,CHO,ester
6177,N-ethylhexan-1-amine,CCCCCCNCC,431.15,8,"[1, 6, 7]",3,True,CHN,amine
6178,"2,3,4-trimethylpentan-2-ol",CC(C)C(C)C(C)(C)O,431.15,8,"[1, 6, 8]",3,True,CHO,alcohol
6179,"(E)-1,1-dimethoxyhex-2-ene",CCC/C=C/C(OC)OC,431.2,8,"[1, 6, 8]",3,True,CHO,ester
6180,"(Z)-1,1-dimethoxyhex-3-ene",CC/C=C\CC(OC)OC,431.2,8,"[1, 6, 8]",3,True,CHO,ester
6181,"2,3-dimethylhexan-3-ol",CCCC(C)(C(C)C)O,431.25,8,"[1, 6, 8]",3,True,CHO,alcohol
6182,"2,3,4-trimethylpentanal",CC(C)C(C)C(C)C=O,432.15,8,"[1, 6, 8]",3,True,CHO,aldehyde
6183,"1,2,4,5-tetramethyl-3,6-dihydropyridazine",CC1=C(CN(N(C1)C)C)C,432.32,8,"[1, 6, 7]",3,True,CHN,alkene
6184,N-(2-methylpropyl)butan-1-amine,CCCCNCC(C)C,432.37,8,"[1, 6, 7]",3,True,CHN,amine
6185,1-methoxy-3-methylidenecyclohexene,COC1=CC(=C)CCC1,432.58,8,"[1, 6, 8]",3,True,CHO,ester
6186,2-butyloxolane,CCCCC1CCCO1,432.65,8,"[1, 6, 8]",3,True,CHO,ester
6187,"2,2,5,5-tetramethylpiperazine",CC1(CNC(CN1)(C)C)C,433.15,8,"[1, 6, 7]",3,True,CHN,amine
6188,"3,5-dimethylhexan-2-ol",CC(C)CC(C)C(C)O,433.15,8,"[1, 6, 8]",3,True,CHO,alcohol
6189,"2,3,3-trimethylpentan-2-ol",CCC(C)(C)C(C)(C)O,433.15,8,"[1, 6, 8]",3,True,CHO,alcohol
6190,4-amino-5-oxo-5-(2-propan-2-ylhydrazinyl)pentanoic acid,CC(C)NNC(=O)C(CCC(=O)O)N,433.15,8,"[1, 6, 7, 8]",4,True,CHON,carboxylic_acid
6191,oct-1-en-3-one,CCCCCC(=O)C=C,433.19,8,"[1, 6, 8]",3,True,CHO,alkene
6192,"4,4-dimethylhexan-3-ol",CCC(C(C)(C)CC)O,433.35,8,"[1, 6, 8]",3,True,CHO,alcohol
6193,"9-oxabicyclo[4.2.1]nona-2,4,7-triene",C1=CC2C=CC(O2)C=C1,433.36,8,"[1, 6, 8]",3,True,CHO,ester
6194,"4-methyl-2-propyl-1,3-dioxane",CCCC1OCCC(O1)C,434.15,8,"[1, 6, 8]",3,True,CHO,ester
6195,2-methylprop-2-enyl butanoate,CCCC(=O)OCC(=C)C,434.15,8,"[1, 6, 8]",3,True,CHO,ester
6196,"methyl 3,3-dimethyl-2-methylidenebutanoate",CC(C)(C)C(=C)C(=O)OC,434.19,8,"[1, 6, 8]",3,True,CHO,ester
6197,"9-oxabicyclo[4.2.1]nona-2,4-diene",C1CC2C=CC=CC1O2,434.2,8,"[1, 6, 8]",3,True,CHO,ester
6198,"methyl 3,3-dimethylpent-4-enoate",CC(C)(CC(=O)OC)C=C,434.31,8,"[1, 6, 8]",3,True,CHO,ester
6199,2-methylheptanal,CCCCCC(C)C=O,434.65,8,"[1, 6, 8]",3,True,CHO,aldehyde
6200,2-cyclohex-3-en-1-yloxirane,C1CC(CC=C1)C2CO2,435.04,8,"[1, 6, 8]",3,True,CHO,ester
6201,9-oxabicyclo[4.2.1]non-7-ene,C1CCC2C=CC(C1)O2,435.04,8,"[1, 6, 8]",3,True,CHO,ester
6202,9-oxabicyclo[3.3.1]non-2-ene,C1CC2CC=CC(C1)O2,435.04,8,"[1, 6, 8]",3,True,CHO,ester
6203,2-ethylhex-2-enal,CCCC=C(CC)C=O,435.34,8,"[1, 6, 8]",3,True,CHO,alkene
6204,1-pyrrol-1-ylpyrrole,C1=CN(C=C1)N2C=CC=C2,435.52,8,"[1, 6, 7]",3,True,CHN,aromatic
6205,2-(2-methylbutan-2-yloxymethyl)oxirane,CCC(C)(C)OCC1CO1,435.52,8,"[1, 6, 8]",3,True,CHO,ester
6206,(2E)-2-(2-methylpropylidene)oxolane,CC(C)/C=C/1\CCCO1,435.74,8,"[1, 6, 8]",3,True,CHO,ester
6207,(2Z)-2-(2-methylpropylidene)oxolane,CC(C)/C=C\1/CCCO1,435.74,8,"[1, 6, 8]",3,True,CHO,ester
6208,9-oxabicyclo[3.3.1]nonane,C1CC2CCCC(C1)O2,435.88,8,"[1, 6, 8]",3,True,CHO,ester
6209,3-oxabicyclo[3.2.2]nonane,C1CC2CCC1COC2,435.88,8,"[1, 6, 8]",3,True,CHO,ester
6210,9-oxabicyclo[4.2.1]nonane,C1CCC2CCC(C1)O2,435.88,8,"[1, 6, 8]",3,True,CHO,ester
6211,"2,3,3a,4,5,6,7,7a-octahydro-1-benzofuran",C1CCC2C(C1)CCO2,435.88,8,"[1, 6, 8]",3,True,CHO,ester
6212,4-methylheptan-3-one,CCCC(C)C(=O)CC,436.07,8,"[1, 6, 8]",3,True,CHO,ketone
6213,(E)-6-methylhept-4-en-2-one,CC(C)/C=C/CC(=O)C,436.15,8,"[1, 6, 8]",3,True,CHO,alkene
6214,1-(2-ethoxyethoxy)butane,CCCCOCCOCC,436.65,8,"[1, 6, 8]",3,True,CHO,ester
6215,"2-methoxycyclohepta-1,3-diene",COC1=CCCCC=C1,436.85,8,"[1, 6, 8]",3,True,CHO,ester
6216,propan-2-yl pent-4-enoate,CC(C)OC(=O)CCC=C,437.1,8,"[1, 6, 8]",3,True,CHO,ester
6217,"methyl 2,3,3-trimethylbutanoate",CC(C(=O)OC)C(C)(C)C,437.19,8,"[1, 6, 8]",3,True,CHO,ester
6218,3-ethyl-4-methylpentan-2-ol,CCC(C(C)C)C(C)O,437.33017,8,"[1, 6, 8]",3,True,CHO,alcohol
6219,"(3Z)-octa-3,7-dien-2-one",CC(=O)/C=C\CCC=C,437.35,8,"[1, 6, 8]",3,True,CHO,alkene
6220,ethyl 4-methylpent-4-enoate,CCOC(=O)CCC(=C)C,437.42,8,"[1, 6, 8]",3,True,CHO,ester
6221,pentyl prop-2-enoate,CCCCCOC(=O)C=C,437.54,8,"[1, 6, 8]",3,True,CHO,ester
6222,prop-2-enyl pentanoate,CCCCC(=O)OCC=C,437.54,8,"[1, 6, 8]",3,True,CHO,ester
6223,but-3-enyl butanoate,CCCC(=O)OCCC=C,437.54,8,"[1, 6, 8]",3,True,CHO,ester
6224,propyl pent-4-enoate,CCCOC(=O)CCC=C,437.54,8,"[1, 6, 8]",3,True,CHO,ester
6225,"1-methoxy-3-methylcyclohexa-1,3-diene",CC1=CCCC(=C1)OC,437.56,8,"[1, 6, 8]",3,True,CHO,ester
6226,"1-methoxy-5-methylcyclohexa-1,4-diene",CC1=CCC=C(C1)OC,437.56,8,"[1, 6, 8]",3,True,CHO,ester
6227,"3-methoxy-1-methylcyclohexa-1,3-diene",CC1=CC(=CCC1)OC,437.56,8,"[1, 6, 8]",3,True,CHO,ester
6228,"propyl 2,2-dimethylpropanoate",CCCOC(=O)C(C)(C)C,437.63,8,"[1, 6, 8]",3,True,CHO,ester
6229,methyl 2-ethyl-2-methylbutanoate,CCC(C)(CC)C(=O)OC,437.63,8,"[1, 6, 8]",3,True,CHO,ester
6230,2-methylbutan-2-yl propanoate,CCC(=O)OC(C)(C)CC,437.63,8,"[1, 6, 8]",3,True,CHO,ester
6231,3-methylpentyl acetate,CCC(C)CCOC(=O)C,437.65,8,"[1, 6, 8]",3,True,CHO,ester
6232,1-(diethylamino)-2-methylpropan-2-ol,CCN(CC)CC(C)(C)O,437.65,8,"[1, 6, 7, 8]",4,True,CHON,alcohol
6233,methyl 5-methylhex-5-enoate,CC(=C)CCCC(=O)OC,438.15,8,"[1, 6, 8]",3,True,CHO,ester
6234,1-methoxy-2-methylcyclohexene,CC1=C(CCCC1)OC,438.4,8,"[1, 6, 8]",3,True,CHO,ester
6235,6-methylheptan-3-ol,CCC(CCC(C)C)O,438.65,8,"[1, 6, 8]",3,True,CHO,alcohol
6236,2-(pentoxymethyl)oxirane,CCCCCOCC1CO1,438.75,8,"[1, 6, 8]",3,True,CHO,ester
6237,2-tert-butyloxazinane,CC(C)(C)N1CCCCO1,438.75,8,"[1, 6, 7, 8]",4,True,CHON,ester
6238,"1,6-diazabicyclo[4.3.1]decane",C1CCN2CCCN(C1)C2,438.88,8,"[1, 6, 7]",3,True,CHN,amine
6239,ethenyl hexanoate,CCCCCC(=O)OC=C,439.15,8,"[1, 6, 8]",3,True,CHO,ester
6240,"(2E,4E)-octa-2,4-dienal",CCC/C=C/C=C/C=O,439.62,8,"[1, 6, 8]",3,True,CHO,alkene
6241,methyl 5-methylhexanoate,CC(C)CCCC(=O)OC,439.65,8,"[1, 6, 8]",3,True,CHO,ester
6242,4-ethylhex-2-ynal,CCC(CC)C#CC=O,439.86,8,"[1, 6, 8]",3,True,CHO,alkyne
6243,butan-2-yl 2-methylpropanoate,CCC(C)OC(=O)C(C)C,439.98,8,"[1, 6, 8]",3,True,CHO,ester
6244,"ethyl 2,3-dimethylbutanoate",CCOC(=O)C(C)C(C)C,439.98,8,"[1, 6, 8]",3,True,CHO,ester
6245,3-methylbutan-2-yl propanoate,CCC(=O)OC(C)C(C)C,439.98,8,"[1, 6, 8]",3,True,CHO,ester
6246,propan-2-yl 2-methylbutanoate,CCC(C)C(=O)OC(C)C,439.98,8,"[1, 6, 8]",3,True,CHO,ester
6247,3-(dimethylamino)propyl prop-2-enoate,CN(C)CCCOC(=O)C=C,440.15,8,"[1, 6, 7, 8]",4,True,CHON,ester
6248,(E)-5-methylhept-3-en-2-one,CCC(C)/C=C/C(=O)C,440.23,8,"[1, 6, 8]",3,True,CHO,alkene
6249,oct-2-ynal,CCCCCC#CC=O,440.3,8,"[1, 6, 8]",3,True,CHO,alkyne
6250,methyl 2-ethylpentanoate,CCCC(CC)C(=O)OC,440.42,8,"[1, 6, 8]",3,True,CHO,ester
6251,2-methylbutyl propanoate,CCC(C)COC(=O)CC,440.42,8,"[1, 6, 8]",3,True,CHO,ester
6252,ethyl 2-ethylbutanoate,CCC(CC)C(=O)OCC,440.42,8,"[1, 6, 8]",3,True,CHO,ester
6253,propan-2-yl pentanoate,CCCCC(=O)OC(C)C,440.42,8,"[1, 6, 8]",3,True,CHO,ester
6254,propyl 2-methylbutanoate,CCCOC(=O)C(C)CC,440.42,8,"[1, 6, 8]",3,True,CHO,ester
6255,"4,5-dimethylhex-4-en-3-one",CCC(=O)C(=C(C)C)C,440.43,8,"[1, 6, 8]",3,True,CHO,alkene
6256,2-methylhept-2-en-4-one,CCCC(=O)C=C(C)C,440.55,8,"[1, 6, 8]",3,True,CHO,alkene
6257,N-[(1-methylpiperidin-4-ylidene)amino]acetamide,CC(=O)NN=C1CCN(CC1)C,440.65,8,"[1, 6, 7, 8]",4,True,CHON,amide
6258,(E)-oct-3-en-2-one,CCCC/C=C/C(=O)C,440.67,8,"[1, 6, 8]",3,True,CHO,alkene
6259,"1,2,4,6-tetramethylpiperazine",CC1CN(CC(N1C)C)C,440.9,8,"[1, 6, 7]",3,True,CHN,amine
6260,N-methylheptan-1-amine,CCCCCCCNC,441.15,8,"[1, 6, 7]",3,True,CHN,amine
6261,2-(2-hydroxyethyl)phenol,C1=CC=C(C(=C1)CCO)O,441.15,8,"[1, 6, 8]",3,True,CHO,aromatic
6262,"7-methyl-1,3,5-triazatricyclo[3.3.1.13,7]decane",CC12CN3CN(C1)CN(C2)C3,441.22,8,"[1, 6, 7]",3,True,CHN,amine
6263,prop-2-enyl (E)-2-methylbut-2-enoate,C/C=C(\C)/C(=O)OCC=C,441.58,8,"[1, 6, 8]",3,True,CHO,ester
6264,"1,1,1-trimethoxypentane",CCCCC(OC)(OC)OC,441.65,8,"[1, 6, 8]",3,True,CHO,ester
6265,2-prop-2-ynoxyoxane,C#CCOC1CCCCO1,441.68,8,"[1, 6, 8]",3,True,CHO,ester
6266,tert-butyl (E)-but-2-enoate,C/C=C/C(=O)OC(C)(C)C,441.79,8,"[1, 6, 8]",3,True,CHO,ester
6267,"3,4-dimethoxyphenol",COC1=C(C=C(C=C1)O)OC,442.15,8,"[1, 6, 8]",3,True,CHO,ester
6268,1-butoxy-2-methylpropan-2-ol,CCCCOCC(C)(C)O,442.15,8,"[1, 6, 8]",3,True,CHO,ester
6269,"2,2-dimethylhex-4-yn-3-one",CC#CC(=O)C(C)(C)C,442.28,8,"[1, 6, 8]",3,True,CHO,alkyne
6270,hex-5-enyl acetate,CC(=O)OCCCCC=C,442.65,8,"[1, 6, 8]",3,True,CHO,ester
6271,"3,3-dimethyl-4-propan-2-ylideneoxetan-2-one",CC(=C1C(C(=O)O1)(C)C)C,443.15,8,"[1, 6, 8]",3,True,CHO,ester
6272,"N,N'-di(propan-2-yl)ethane-1,2-diamine",CC(C)NCCNC(C)C,443.15,8,"[1, 6, 7]",3,True,CHN,amine
6273,"1,4-dimethylcyclohexan-1-ol",CC1CCC(CC1)(C)O,443.15,8,"[1, 6, 8]",3,True,CHO,alcohol
6274,"2,2,4-trimethylpent-3-en-1-ol",CC(=CC(C)(C)CO)C,443.15,8,"[1, 6, 8]",3,True,CHO,alkene
6275,"1-N,1-N-diethylbutane-1,3-diamine",CCN(CC)CCC(C)N,443.15,8,"[1, 6, 7]",3,True,CHN,amine
6276,6-methylhept-2-en-4-one,CC=CC(=O)CC(C)C,443.15,8,"[1, 6, 8]",3,True,CHO,alkene
6277,"3,3,5,5-tetramethyloxolan-2-one",CC1(CC(OC1=O)(C)C)C,443.41,8,"[1, 6, 8]",3,True,CHO,ester
6278,bicyclo[2.2.1]hept-5-ene-2-carbaldehyde,C1C2CC(C1C=C2)C=O,443.54,8,"[1, 6, 8]",3,True,CHO,alkene
6279,"2,2-diethoxy-N,N-dimethylethanamine",CCOC(CN(C)C)OCC,443.65,8,"[1, 6, 7, 8]",4,True,CHON,ester
6280,4-ethyl-4-methylpiperidine,CCC1(CCNCC1)C,443.65,8,"[1, 6, 7]",3,True,CHN,amine
6281,3-methylidene-1-azabicyclo[2.2.2]octane,C=C1CN2CCC1CC2,443.65,8,"[1, 6, 7]",3,True,CHN,alkene
6282,1-(2-methylcyclopentyl)ethanone,CC1CCCC1C(=O)C,443.65,8,"[1, 6, 8]",3,True,CHO,ketone
6283,2-ethylcyclohexan-1-amine,CCC1CCCCC1N,443.65,8,"[1, 6, 7]",3,True,CHN,amine
6284,"octa-2,4,6-trienal",CC=CC=CC=CC=O,443.78,8,"[1, 6, 8]",3,True,CHO,alkene
6285,"2-tert-butyl-4-methyl-1,3-dioxolane",CC1COC(O1)C(C)(C)C,443.92,8,"[1, 6, 8]",3,True,CHO,ester
6286,"4-tert-butyl-2-methyl-1,3-dioxolane",CC1OCC(O1)C(C)(C)C,443.92,8,"[1, 6, 8]",3,True,CHO,ester
6287,2-[(2-methylpropan-2-yl)oxy]oxolane,CC(C)(C)OC1CCCO1,444.06,8,"[1, 6, 8]",3,True,CHO,ester
6288,(E)-oct-5-en-2-one,CC/C=C/CCC(=O)C,444.15,8,"[1, 6, 8]",3,True,CHO,alkene
6289,"N,N-dimethyl-1-(5-methylfuran-2-yl)methanamine",CC1=CC=C(O1)CN(C)C,444.15,8,"[1, 6, 7, 8]",4,True,CHON,aromatic
6290,bicyclo[2.2.1]heptane-2-carbaldehyde,C1CC2CC1CC2C=O,444.38,8,"[1, 6, 8]",3,True,CHO,aldehyde
6291,2-methylpropyl but-2-enoate,CC=CC(=O)OCC(C)C,444.58,8,"[1, 6, 8]",3,True,CHO,ester
6292,butan-2-yl (E)-but-2-enoate,CCC(C)OC(=O)/C=C/C,444.58,8,"[1, 6, 8]",3,True,CHO,ester
6293,propan-2-yl (E)-pent-3-enoate,C/C=C/CC(=O)OC(C)C,444.58,8,"[1, 6, 8]",3,True,CHO,ester
6294,"(E)-N,N,N',N'-tetramethylbut-2-ene-1,4-diamine",CN(C)C/C=C/CN(C)C,444.65,8,"[1, 6, 7]",3,True,CHN,alkene
6295,"N',N'-dimethyl-N-propan-2-ylpropane-1,3-diamine",CC(C)NCCCN(C)C,444.81,8,"[1, 6, 7]",3,True,CHN,amine
6296,"(3E,5E)-octa-3,5-dien-2-one",CC/C=C/C=C/C(=O)C,444.83,8,"[1, 6, 8]",3,True,CHO,alkene
6297,[(E)-3-methylpent-2-enyl] acetate,CC/C(=C/COC(=O)C)/C,444.9,8,"[1, 6, 8]",3,True,CHO,ester
6298,ethyl 4-methylpent-3-enoate,CCOC(=O)CC=C(C)C,444.9,8,"[1, 6, 8]",3,True,CHO,ester
6299,propyl (Z)-2-methylbut-2-enoate,CCCOC(=O)/C(=C\C)/C,444.9,8,"[1, 6, 8]",3,True,CHO,ester
6300,propyl (E)-2-methylbut-2-enoate,CCCOC(=O)/C(=C/C)/C,444.9,8,"[1, 6, 8]",3,True,CHO,ester
6301,butyl (E)-but-2-enoate,CCCCOC(=O)/C=C/C,445.02,8,"[1, 6, 8]",3,True,CHO,ester
6302,propyl (E)-pent-2-enoate,CCCOC(=O)/C=C/CC,445.02,8,"[1, 6, 8]",3,True,CHO,ester
6303,propyl (E)-pent-3-enoate,CCCOC(=O)C/C=C/C,445.02,8,"[1, 6, 8]",3,True,CHO,ester
6304,oct-4-en-3-one,CCCC=CC(=O)CC,445.15,8,"[1, 6, 8]",3,True,CHO,alkene
6305,"N',N'-diethyl-N-methylpropane-1,3-diamine",CCN(CC)CCCNC,445.25,8,"[1, 6, 7]",3,True,CHN,amine
6306,"2-methoxybicyclo[2.2.1]hepta-2,5-diene",COC1=CC2CC1C=C2,445.41,8,"[1, 6, 8]",3,True,CHO,ester
6307,oct-3-yn-2-one,CCCCC#CC(=O)C,445.51,8,"[1, 6, 8]",3,True,CHO,alkyne
6308,4-(2-methylprop-1-enyl)morpholine,CC(=CN1CCOCC1)C,446.02,8,"[1, 6, 7, 8]",4,True,CHON,ester
6309,"2-ethoxy-4-methyl-3,4-dihydro-2H-pyran",CCOC1CC(C=CO1)C,446.05,8,"[1, 6, 8]",3,True,CHO,ester
6310,ethyl cyclopentanecarboxylate,CCOC(=O)C1CCCC1,446.15,8,"[1, 6, 8]",3,True,CHO,ester
6311,3-methyl-2-propan-2-ylbutan-1-ol,CC(C)C(CO)C(C)C,446.15,8,"[1, 6, 8]",3,True,CHO,alcohol
6312,"1,1,1-trimethoxy-3-methylbutane",CC(C)CC(OC)(OC)OC,446.23,8,"[1, 6, 8]",3,True,CHO,ester
6313,"1,1,1-trimethoxy-2-methylbutane",CCC(C)C(OC)(OC)OC,446.23,8,"[1, 6, 8]",3,True,CHO,ester
6314,"4,4-dimethoxycyclohexene",COC1(CCC=CC1)OC,446.43,8,"[1, 6, 8]",3,True,CHO,ester
6315,1-(2-ethenoxyethoxy)-2-ethoxyethane,CCOCCOCCOC=C,446.58,8,"[1, 6, 8]",3,True,CHO,ester
6316,"methyl 4,4-dimethylpent-2-ynoate",CC(C)(C)C#CC(=O)OC,446.63,8,"[1, 6, 8]",3,True,CHO,ester
6317,"4-methyl-2-(2-methylpropyl)-1,3-dioxolane",CC1COC(O1)CC(C)C,446.71,8,"[1, 6, 8]",3,True,CHO,ester
6318,"2,2,4,6-tetramethyl-1,3-dioxane",CC1CC(OC(O1)(C)C)C,446.99,8,"[1, 6, 8]",3,True,CHO,ester
6319,"2,5-dimethylcyclohexan-1-one",CC1CCC(C(=O)C1)C,447.0,8,"[1, 6, 8]",3,True,CHO,ketone
6320,"1,4-diethylpiperazine",CCN1CCN(CC1)CC,447.15,8,"[1, 6, 7]",3,True,CHN,amine
6321,2-prop-1-en-2-ylpyridine,CC(=C)C1=CC=CC=N1,447.15,8,"[1, 6, 7]",3,True,CHN,alkene
6322,(E)-2-ethyl-4-methylpent-2-enal,CC/C(=C\C(C)C)/C=O,447.15,8,"[1, 6, 8]",3,True,CHO,alkene
6323,2-ethyl-4-methylpyridine,CCC1=NC=CC(=C1)C,447.15,8,"[1, 6, 7]",3,True,CHN,aromatic
6324,2-butylpyrrolidine,CCCCC1CCCN1,447.15,8,"[1, 6, 7]",3,True,CHN,amine
6325,"2-butyl-4-methyl-1,3-dioxolane",CCCCC1OCC(O1)C,447.15,8,"[1, 6, 8]",3,True,CHO,ester
6326,5-(2-methylpropyl)oxolan-2-one,CC(C)CC1CCC(=O)O1,447.16,8,"[1, 6, 8]",3,True,CHO,ester
6327,1-cyclopentylpropan-1-one,CCC(=O)C1CCCC1,447.65,8,"[1, 6, 8]",3,True,CHO,ketone
6328,"3,4-dimethoxyaniline",COC1=C(C=C(C=C1)N)OC,448.15,8,"[1, 6, 7, 8]",4,True,CHON,ester
6329,2-propan-2-ylcyclopentan-1-one,CC(C)C1CCCC1=O,448.15,8,"[1, 6, 8]",3,True,CHO,ketone
6330,"N,N-diethyl-2-methylpropanamide",CCN(CC)C(=O)C(C)C,448.51,8,"[1, 6, 7, 8]",4,True,CHON,amide
6331,oct-7-en-2-one,CC(=O)CCCCC=C,448.65,8,"[1, 6, 8]",3,True,CHO,alkene
6332,4-(diethylamino)butan-2-one,CCN(CC)CCC(=O)C,448.95,8,"[1, 6, 7, 8]",4,True,CHON,ketone
6333,"[(2E,4E)-hexa-2,4-dienyl] acetate",C/C=C/C=C/COC(=O)C,449.18,8,"[1, 6, 8]",3,True,CHO,ester
6334,"1,1,2-triethoxyethane",CCOCC(OCC)OCC,449.46,8,"[1, 6, 8]",3,True,CHO,ester
6335,"2,4-dimethylcyclohexan-1-one",CC1CCC(=O)C(C1)C,449.65,8,"[1, 6, 8]",3,True,CHO,ketone
6336,methyl hept-2-ynoate,CCCCC#CC(=O)OC,449.86,8,"[1, 6, 8]",3,True,CHO,ester
6337,ethyl 2-(diethylamino)acetate,CCN(CC)CC(=O)OCC,450.15,8,"[1, 6, 7, 8]",4,True,CHON,ester
6338,3-propan-2-ylpyridine,CC(C)C1=CN=CC=C1,450.65,8,"[1, 6, 7]",3,True,CHN,aromatic
6339,2-propan-2-yloxyoxane,CC(C)OC1CCCCO1,451.12,8,"[1, 6, 8]",3,True,CHO,ester
6340,(E)-oct-2-en-4-one,CCCCC(=O)/C=C/C,451.15,8,"[1, 6, 8]",3,True,CHO,alkene
6341,"1,6-dimethoxycyclohexene",COC1CCCC=C1OC,451.17,8,"[1, 6, 8]",3,True,CHO,ester
6342,"2-pentan-2-yl-1,3-dioxolane",CCCC(C)C1OCCO1,451.38,8,"[1, 6, 8]",3,True,CHO,ester
6343,2-propoxyoxane,CCCOC1CCCCO1,451.56,8,"[1, 6, 8]",3,True,CHO,ester
6344,"2,5-dimethylcyclohexan-1-ol",CC1CCC(C(C1)O)C,451.65,8,"[1, 6, 8]",3,True,CHO,alcohol
6345,(Z)-4-[2-(2-hydroxyethoxy)ethoxy]-4-oxobut-2-enoic acid,C(COCCOC(=O)/C=C\C(=O)O)O,451.65,8,"[1, 6, 8]",3,True,CHO,carboxylic_acid
6346,1-cyclopentylpropan-2-one,CC(=O)CC1CCCC1,451.79,8,"[1, 6, 8]",3,True,CHO,ketone
6347,6-propyloxan-2-one,CCCC1CCCC(=O)O1,451.87,8,"[1, 6, 8]",3,True,CHO,ester
6348,"3,3,6,6-tetramethyldioxane",CC1(CCC(OO1)(C)C)C,451.9,8,"[1, 6, 8]",3,True,CHO,ester
6349,1-(1-methylcyclopentyl)ethanone,CC(=O)C1(CCCC1)C,452.03,8,"[1, 6, 8]",3,True,CHO,ketone
6350,"2-pentyl-1,3-dioxolane",CCCCCC1OCCO1,452.15,8,"[1, 6, 8]",3,True,CHO,ester
6351,"2,5-dimethylhexan-1-ol",CC(C)CCC(C)CO,452.15,8,"[1, 6, 8]",3,True,CHO,alcohol
6352,"2,6-dimethoxybenzene-1,4-diol",COC1=CC(=CC(=C1O)OC)O,452.15,8,"[1, 6, 8]",3,True,CHO,ester
6353,"2,2-dimethyl-N-prop-2-enylpropan-1-imine",CC(C)(C)C=NCC=C,452.77,8,"[1, 6, 7]",3,True,CHN,alkene
6354,cyclopentyl prop-2-enoate,C=CC(=O)OC1CCCC1,452.82,8,"[1, 6, 8]",3,True,CHO,ester
6355,3-ethoxy-4-methylpentanal,CCOC(CC=O)C(C)C,452.84,8,"[1, 6, 8]",3,True,CHO,ester
6356,4-hydroxybutyl 2-methylprop-2-enoate,CC(=C)C(=O)OCCCCO,453.15,8,"[1, 6, 8]",3,True,CHO,ester
6357,5-tert-butyl-3H-furan-2-one,CC(C)(C)C1=CCC(=O)O1,453.18,8,"[1, 6, 8]",3,True,CHO,ester
6358,cyclohexen-1-yl acetate,CC(=O)OC1=CCCCC1,453.65,8,"[1, 6, 8]",3,True,CHO,ester
6359,"2-ethyl-3,5-dimethylpyrazine",CCC1=NC=C(N=C1C)C,453.65,8,"[1, 6, 7]",3,True,CHN,aromatic
6360,"1-N,3-N-diethylbutane-1,3-diamine",CCNCCC(C)NCC,453.65,8,"[1, 6, 7]",3,True,CHN,amine
6361,5-methylheptan-3-amine,CCC(C)CC(CC)N,454.29,8,"[1, 6, 7]",3,True,CHN,amine
6362,2-methylheptan-3-amine,CCCCC(C(C)C)N,454.29,8,"[1, 6, 7]",3,True,CHN,amine
6363,"2,3-dimethyl-1,4,6,9-tetrahydropyridazino[1,2-a][1,2,4,5]tetrazine",CN1CN2CC=CCN2CN1C,454.38,8,"[1, 6, 7]",3,True,CHN,alkene
6364,"N,N-dimethyl-2-morpholin-4-ylethanamine",CN(C)CCN1CCOCC1,454.42,8,"[1, 6, 7, 8]",4,True,CHON,ester
6365,"9-azabicyclo[4.2.1]nona-2,4,7-triene",C1=CC2C=CC(N2)C=C1,454.96,8,"[1, 6, 7]",3,True,CHN,alkene
6366,4-methylcyclohex-3-ene-1-carbaldehyde,CC1=CCC(CC1)C=O,454.99,8,"[1, 6, 8]",3,True,CHO,alkene
6367,"3-propan-2-ylpentane-2,4-dione",CC(C)C(C(=O)C)C(=O)C,455.65,8,"[1, 6, 8]",3,True,CHO,ketone
6368,1-(aziridin-1-yl)-2-ethylbutan-1-one,CCC(CC)C(=O)N1CC1,455.65,8,"[1, 6, 7, 8]",4,True,CHON,amide
6369,"2-ethoxy-6-methyl-3,4-dihydro-2H-pyran",CCOC1CCC=C(O1)C,455.7,8,"[1, 6, 8]",3,True,CHO,ester
6370,"9-azabicyclo[4.2.1]nona-2,4-diene",C1CC2C=CC=CC1N2,455.8,8,"[1, 6, 7]",3,True,CHN,alkene
6371,1-(aziridin-1-yl)hexan-1-one,CCCCCC(=O)N1CC1,456.09,8,"[1, 6, 7, 8]",4,True,CHON,amide
6372,3-propan-2-ylidenepiperidine,CC(=C1CCCNC1)C,456.15,8,"[1, 6, 7]",3,True,CHN,alkene
6373,2-propylcyclopentan-1-one,CCCC1CCCC1=O,456.15,8,"[1, 6, 8]",3,True,CHO,ketone
6374,"2,3,4-trimethylpentan-1-ol",CC(C)C(C)C(C)CO,456.15,8,"[1, 6, 8]",3,True,CHO,alcohol
6375,"3,5-dimethylhexan-1-ol",CC(C)CC(C)CCO,456.15,8,"[1, 6, 8]",3,True,CHO,alcohol
6376,"2,2,4-trimethyl-3H-pyran-6-one",CC1=CC(=O)OC(C1)(C)C,456.25,8,"[1, 6, 8]",3,True,CHO,ester