,Name,SMILES,Tb,C Atom,Atom,Count Unique Atom,Pass Screen,Atom2,Func. Group
4840,"2,3-dimethylpenta-1,4-diene",CC(C=C)C(=C)C,352.56,7,"[1, 6]",2,True,CH,alkene
4841,"2,4-dimethylpenta-1,4-diene",CC(=C)CC(=C)C,352.88,7,"[1, 6]",2,True,CH,alkene
4842,"3,5-dimethylcyclopentene",CC1CC(C=C1)C,353.0,7,"[1, 6]",2,True,CH,alkene
4843,"3,4-dimethylpent-1-yne",CC(C)C(C)C#C,353.15,7,"[1, 6]",2,True,CH,alkyne
4844,1-ethenyl-1-ethynylcyclopropane,C=CC1(CC1)C#C,353.54,7,"[1, 6]",2,True,CH,alkene
4845,(Z)-3-ethylpent-3-en-1-yne,CC/C(=C/C)/C#C,353.92,7,"[1, 6]",2,True,CH,alkene
4846,"tetracyclo[4.1.0.02,4.03,5]heptane",C1C2C1C3C4C2C34,356.03,7,"[1, 6]",2,True,CH,alkane
4847,N-methyl-1-pyridin-4-ylmethanamine,CNCC1=CC=NC=C1,357.15,7,"[1, 6, 7]",3,True,CHN,aromatic
4848,"(3E)-3-methylhexa-1,3,5-triene",C/C(=C\C=C)/C=C,357.16,7,"[1, 6]",2,True,CH,alkene
4849,"(3E)-2-methylhexa-1,3,5-triene",CC(=C)/C=C/C=C,357.16,7,"[1, 6]",2,True,CH,alkene
4850,"3-ethenylpenta-1,3-diene",CC=C(C=C)C=C,357.16,7,"[1, 6]",2,True,CH,alkene
4851,"(3E)-hepta-1,3,6-triene",C=CC/C=C/C=C,357.28,7,"[1, 6]",2,True,CH,alkene
4852,4-propan-2-ylmorpholine,CC(C)N1CCOCC1,357.55,7,"[1, 6, 7, 8]",4,True,CHON,ester
4853,3-methylhex-1-yne,CCCC(C)C#C,358.15,7,"[1, 6]",2,True,CH,alkyne
4854,"1,2-diethylcyclopropane",CCC1CC1CC,359.65,7,"[1, 6]",2,True,CH,alkane
4855,"1,1-bis(ethenyl)cyclopropane",C=CC1(CC1)C=C,360.1,7,"[1, 6]",2,True,CH,alkene
4856,"(3E)-5-methylhexa-1,3-diene",CC(C)/C=C/C=C,360.16,7,"[1, 6]",2,True,CH,alkene
4857,"(3E)-2,3-dimethylpenta-1,3-diene",C/C=C(\C)/C(=C)C,360.36,7,"[1, 6]",2,True,CH,alkene
4858,"(4E)-4-methylhexa-1,4-diene",C/C=C(\C)/CC=C,360.48,7,"[1, 6]",2,True,CH,alkene
4859,"(3E)-4-methylhexa-1,3-diene",CC/C(=C/C=C)/C,360.48,7,"[1, 6]",2,True,CH,alkene
4860,"(3E)-hepta-1,3-diene",CCC/C=C/C=C,360.6,7,"[1, 6]",2,True,CH,alkene
4861,"5-amino-2-hydroxycyclohepta-2,4,6-trien-1-one",C1=CC(=O)C(=CC=C1N)O,361.15,7,"[1, 6, 7, 8]",4,True,CHON,alcohol
4862,"1,1-diethylcyclopropane",CCC1(CC1)CC,361.82,7,"[1, 6]",2,True,CH,alkane
4863,"2-methylhexa-1,5-dien-3-yne",CC(=C)C#CC=C,362.0,7,"[1, 6]",2,True,CH,alkene
4864,"2-ethyl-1,1-dimethylcyclopropane",CCC1CC1(C)C,362.07,7,"[1, 6]",2,True,CH,alkane
4865,3-methyl-3-prop-1-en-2-ylcyclopropene,CC(=C)C1(C=C1)C,362.46,7,"[1, 6]",2,True,CH,alkene
4866,"heptane-1,2-diol",CCCCCC(CO)O,363.15,7,"[1, 6, 8]",3,True,CHO,alcohol
4867,1-methyl-1-prop-1-en-2-ylcyclopropane,CC(=C)C1(CC1)C,363.3,7,"[1, 6]",2,True,CH,alkene
4868,5-methyl-2-methylidenebicyclo[2.1.0]pentane,CC1C2C1C(=C)C2,363.46,7,"[1, 6]",2,True,CH,alkene
4869,"5,5-dimethylbicyclo[2.1.0]pent-2-ene",CC1(C2C1C=C2)C,363.7,7,"[1, 6]",2,True,CH,alkene
4870,2-propylpyrazine,CCCC1=NC=CN=C1,364.15,7,"[1, 6, 7]",3,True,CHN,aromatic
4871,"2,5-diaminocyclohepta-2,4,6-trien-1-one",C1=CC(=O)C(=CC=C1N)N,364.15,7,"[1, 6, 7, 8]",4,True,CHON,aromatic
4872,4-methylhex-1-yne,CCC(C)CC#C,364.15,7,"[1, 6]",2,True,CH,alkyne
4873,"5,5-dimethylbicyclo[2.1.0]pentane",CC1(C2C1CC2)C,364.54,7,"[1, 6]",2,True,CH,alkane
4874,"5-methylhexa-1,4-diene",CC(=CCC=C)C,364.98821,7,"[1, 6]",2,True,CH,alkene
4875,ethynylcyclopentane,C#CC1CCCC1,365.16,7,"[1, 6]",2,True,CH,alkyne
4876,propan-2-ylcyclobutane,CC(C)C1CCC1,365.72901,7,"[1, 6]",2,True,CH,alkane
4877,"tricyclo[4.1.0.02,7]hept-3-ene",C1C=CC2C3C1C23,365.93,7,"[1, 6]",2,True,CH,alkene
4878,"tricyclo[3.2.0.02,4]hept-6-ene",C1C2C1C3C2C=C3,365.93,7,"[1, 6]",2,True,CH,alkene
4879,2-cyclopent-2-en-1-ylacetic acid,C1CC(C=C1)CC(=O)O,366.15,7,"[1, 6, 8]",3,True,CHO,alkene
4880,di(propan-2-yl)cyanamide,CC(C)N(C#N)C(C)C,366.65,7,"[1, 6, 7]",3,True,CHN,amine
4881,"tricyclo[3.2.0.02,7]heptane",C1CC2C3C2C1C3,366.77,7,"[1, 6]",2,True,CH,alkane
4882,"tricyclo[2.2.1.02,6]heptane",C1C2CC3C1C3C2,366.77,7,"[1, 6]",2,True,CH,alkane
4883,"tricyclo[4.1.0.02,7]heptane",C1CC2C3C2C3C1,366.77,7,"[1, 6]",2,True,CH,alkane
4884,"tricyclo[3.2.0.02,4]heptane",C1CC2C1C3C2C3,366.77,7,"[1, 6]",2,True,CH,alkane
4885,"tricyclo[3.1.1.03,6]heptane",C1C2CC3C2C1C3,366.77,7,"[1, 6]",2,True,CH,alkane
4886,(E)-3-methylhex-2-ene,CCC/C(=C/C)/C,367.65,7,"[1, 6]",2,True,CH,alkene
4887,"(2E,4E)-hepta-2,4-diene",CC/C=C/C=C/C,368.08,7,"[1, 6]",2,True,CH,alkene
4888,"N,N,2,2-tetramethylpropan-1-amine",CC(C)(C)CN(C)C,368.97,7,"[1, 6, 7]",3,True,CHN,amine
4889,"2,3,4,6,7,8-hexahydropyrrolo[1,2-a]pyrimidine",C1CC2=NCCCN2C1,369.15,7,"[1, 6, 7]",3,True,CHN,amine
4890,"3,4-dimethylcyclopentene",CC1CC=CC1C,369.53,7,"[1, 6]",2,True,CH,alkene
4891,"(2E,4E)-5-(dimethylamino)penta-2,4-dienal",CN(C)/C=C/C=C/C=O,370.51,7,"[1, 6, 7, 8]",4,True,CHON,aldehyde
4892,[(Z)-but-2-en-2-yl]cyclopropane,C/C=C(/C)\C1CC1,370.54,7,"[1, 6]",2,True,CH,alkene
4893,but-1-enylcyclopropane,CCC=CC1CC1,370.66,7,"[1, 6]",2,True,CH,alkene
4894,propylcyclobutane,CCCC1CCC1,370.77,7,"[1, 6]",2,True,CH,alkane
4895,4-ethylcyclopentene,CCC1CC=CC1,371.15,7,"[1, 6]",2,True,CH,alkene
4896,"N,N,3-trimethylbutan-2-amine",CC(C)C(C)N(C)C,371.32,7,"[1, 6, 7]",3,True,CHN,amine
4897,5-methylidenebicyclo[2.2.0]hex-2-ene,C=C1CC2C1C=C2,371.56,7,"[1, 6]",2,True,CH,alkene
4898,"2-(furan-2-yl)-1,3-dioxolane",C1COC(O1)C2=CC=CO2,371.65,7,"[1, 6, 8]",3,True,CHO,ester
4899,N-(2-methylphenyl)hydroxylamine,CC1=CC=CC=C1NO,371.65,7,"[1, 6, 7, 8]",4,True,CHON,aromatic
4900,"tricyclo[4.1.0.01,3]heptane",C1CC2CC23C1C3,371.68,7,"[1, 6]",2,True,CH,alkane
4901,"spiro[bicyclo[2.1.0]pentane-5,1'-cyclopropane]",C1CC2C1C23CC3,371.68,7,"[1, 6]",2,True,CH,alkane
4902,but-1-en-2-ylcyclopropane,CCC(=C)C1CC1,371.72,7,"[1, 6]",2,True,CH,alkene
4903,"N,N,2-trimethylbutan-1-amine",CCC(C)CN(C)C,371.76,7,"[1, 6, 7]",3,True,CHN,amine
4904,N-methyl-N-propan-2-ylpropan-1-amine,CCCN(C)C(C)C,371.76,7,"[1, 6, 7]",3,True,CHN,amine
4905,butylcyclopropane,CCCCC1CC1,371.83707,7,"[1, 6]",2,True,CH,alkane
4906,"1,1-diethynylcyclopropane",C#CC1(CC1)C#C,373.0,7,"[1, 6]",2,True,CH,alkyne
4907,2-methyl-2-prop-2-enoxypropane,CC(C)(C)OCC=C,373.15,7,"[1, 6, 8]",3,True,CHO,ester
4908,"5,5-dimethylcyclopenta-1,3-diene",CC1(C=CC=C1)C,373.6,7,"[1, 6]",2,True,CH,alkene
4909,2-ethenoxy-3-methylbut-1-ene,CC(C)C(=C)OC=C,374.98,7,"[1, 6, 8]",3,True,CHO,ester
4910,cyclopropylmethylcyclopropane,C1CC1CC2CC2,375.15,7,"[1, 6]",2,True,CH,alkane
4911,2-methyl-3-prop-2-enoxyprop-1-ene,CC(=C)COCC=C,375.42,7,"[1, 6, 8]",3,True,CHO,ester
4912,"1-methylcyclohexa-1,3-diene",CC1=CC=CCC1,375.65,7,"[1, 6]",2,True,CH,alkene
4913,"bicyclo[4.1.0]hepta-2,4-diene",C1C2C1C=CC=C2,375.83,7,"[1, 6]",2,True,CH,alkene
4914,"1,2,3,3-tetramethylcyclopropene",CC1=C(C1(C)C)C,375.86,7,"[1, 6]",2,True,CH,alkene
4915,N-ethyl-N-methylbutan-2-amine,CCC(C)N(C)CC,376.15,7,"[1, 6, 7]",3,True,CHN,amine
4916,"(Z)-N,N-dimethylpent-2-en-3-amine",CC/C(=C/C)/N(C)C,376.24,7,"[1, 6, 7]",3,True,CHN,alkene
4917,dispiro[2.0.24.13]heptane,C1CC12CC23CC3,376.59,7,"[1, 6]",2,True,CH,alkane
4918,bicyclo[4.1.0]hept-2-ene,C1CC2CC2C=C1,376.67,7,"[1, 6]",2,True,CH,alkene
4919,bicyclo[3.2.0]hept-6-ene,C1CC2C=CC2C1,376.67,7,"[1, 6]",2,True,CH,alkene
4920,bicyclo[3.2.0]hept-2-ene,C1CC2C1CC=C2,376.67,7,"[1, 6]",2,True,CH,alkene
4921,"N,N-diethylprop-2-enamide",CCN(CC)C(=O)C=C,377.15,7,"[1, 6, 7, 8]",4,True,CHON,amide
4922,"5-methylcyclohexa-1,3-diene",CC1CC=CC=C1,377.63,7,"[1, 6]",2,True,CH,alkene
4923,"1,2-dimethylidenecyclopentane",C=C1CCCC1=C,378.03,7,"[1, 6]",2,True,CH,alkene
4924,2-methoxy-4-methylpent-1-ene,CC(C)CC(=C)OC,378.3,7,"[1, 6, 8]",3,True,CHO,ester
4925,2-ethoxy-3-methylbut-1-ene,CCOC(=C)C(C)C,378.3,7,"[1, 6, 8]",3,True,CHO,ester
4926,"2-methoxy-2,3-dimethylbutane",CC(C)C(C)(C)OC,378.51,7,"[1, 6, 8]",3,True,CHO,ester
4927,2-ethoxypentane,CCCC(C)OCC,378.65,7,"[1, 6, 8]",3,True,CHO,ester
4928,N-methyl-N-propylcyclopropanamine,CCCN(C)C1CC1,378.94,7,"[1, 6, 7]",3,True,CHN,amine
4929,2-methoxy-2-methylpentane,CCCC(C)(C)OC,378.95,7,"[1, 6, 8]",3,True,CHO,ester
4930,3-methoxy-3-methylpentane,CCC(C)(CC)OC,378.95,7,"[1, 6, 8]",3,True,CHO,ester
4931,2-ethenoxy-2-methylbutane,CCC(C)(C)OC=C,379.15,7,"[1, 6, 8]",3,True,CHO,ester
4932,"2,3-dimethylpenta-1,3-diene",CC=C(C)C(=C)C,380.05,7,"[1, 6]",2,True,CH,alkene
4933,hept-1-en-4-yne,CCC#CCC=C,380.15,7,"[1, 6]",2,True,CH,alkene
4934,2-ethylpentan-1-ol,CCCC(CC)CO,380.15,7,"[1, 6, 8]",3,True,CHO,alcohol
4935,"spiro[2.4]hepta-4,6-diene",C1CC12C=CC=C2,380.74,7,"[1, 6]",2,True,CH,alkene
4936,"spiro[3.3]hepta-2,6-diene",C1C=CC12CC=C2,380.74,7,"[1, 6]",2,True,CH,alkene
4937,"cycloheptane-1,2-dione",C1CCC(=O)C(=O)CC1,381.15,7,"[1, 6, 8]",3,True,CHO,ketone
4938,"N,N-diethylprop-1-yn-1-amine",CCN(CC)C#CC,381.2,7,"[1, 6, 7]",3,True,CHN,alkyne
4939,"N,N-dimethylpent-2-yn-1-amine",CCC#CCN(C)C,381.2,7,"[1, 6, 7]",3,True,CHN,alkyne
4940,2-methyl-1-propan-2-yloxypropane,CC(C)COC(C)C,381.3,7,"[1, 6, 8]",3,True,CHO,ester
4941,2-methoxy-3-methylpentane,CCC(C)C(C)OC,381.3,7,"[1, 6, 8]",3,True,CHO,ester
4942,2-methoxy-4-methylpentane,CC(C)CC(C)OC,381.3,7,"[1, 6, 8]",3,True,CHO,ester
4943,"3-methylidenecyclohexa-1,4-diene",C=C1C=CCC=C1,381.46,7,"[1, 6]",2,True,CH,alkene
4944,"5-methylidenecyclohexa-1,3-diene",C=C1CC=CC=C1,381.46,7,"[1, 6]",2,True,CH,alkene
4945,spiro[2.4]hept-6-ene,C1CC2(CC2)C=C1,381.58,7,"[1, 6]",2,True,CH,alkene
4946,1-methoxy-4-methylpentane,CC(C)CCCOC,381.74,7,"[1, 6, 8]",3,True,CHO,ester
4947,2-methoxyhexane,CCCCC(C)OC,381.74,7,"[1, 6, 8]",3,True,CHO,ester
4948,3-ethoxypentane,CCC(CC)OCC,381.74,7,"[1, 6, 8]",3,True,CHO,ester
4949,3-methoxyhexane,CCCC(CC)OC,381.74,7,"[1, 6, 8]",3,True,CHO,ester
4950,"N,N-dimethylpentan-2-amine",CCCC(C)N(C)C,382.15,7,"[1, 6, 7]",3,True,CHN,amine
4951,4-methylidenecyclohexene,C=C1CCC=CC1,382.3,7,"[1, 6]",2,True,CH,alkene
4952,2-ethenoxy-3-methylbut-2-ene,CC(=C(C)OC=C)C,382.78,7,"[1, 6, 8]",3,True,CHO,ester
4953,2-methyl-2-[(Z)-prop-1-enoxy]propane,C/C=C\OC(C)(C)C,383.11,7,"[1, 6, 8]",3,True,CHO,ester
4954,hept-1-en-3-yne,CCCC#CC=C,383.15,7,"[1, 6]",2,True,CH,alkene
4955,1-butylimidazole,CCCCN1C=CN=C1,383.15,7,"[1, 6, 7]",3,True,CHN,aromatic
4956,N-methyl-N-propan-2-ylpropan-2-amine,CC(C)N(C)C(C)C,383.65,7,"[1, 6, 7]",3,True,CHN,amine
4957,"1-N,1-N,2-N,2-N-tetramethylpropane-1,2-diamine",CC(CN(C)C)N(C)C,384.2,7,"[1, 6, 7]",3,True,CHN,amine
4958,"N'-ethyl-N,N,N'-trimethylethane-1,2-diamine",CCN(C)CCN(C)C,384.64,7,"[1, 6, 7]",3,True,CHN,amine
4959,"5-ethylidenecyclopenta-1,3-diene",CC=C1C=CC=C1,384.67,7,"[1, 6]",2,True,CH,alkene
4960,"cyclohepta-1,2,4,6-tetraene",C1=CC=C=CC=C1,384.73,7,"[1, 6]",2,True,CH,alkene
4961,"2,2,5-trimethylpyrrolidine",CC1CCC(N1)(C)C,385.15,7,"[1, 6, 7]",3,True,CHN,amine
4962,"N,N-diethylpropan-1-amine",CCCN(CC)CC,385.2,7,"[1, 6, 7]",3,True,CHN,amine
4963,"(E)-N,N-dimethylpent-3-en-1-yn-1-amine",C/C=C/C#CN(C)C,385.36,7,"[1, 6, 7]",3,True,CHN,alkene
4964,"heptane-2,6-dione",CC(=O)CCCC(=O)C,385.4,7,"[1, 6, 8]",3,True,CHO,ketone
4965,(3Z)-3-ethylidenecyclopentene,C/C=C\1/CCC=C1,385.51,7,"[1, 6]",2,True,CH,alkene
4966,2-methyl-2-azabicyclo[2.2.1]heptane,CN1CC2CCC1C2,385.68,7,"[1, 6, 7]",3,True,CHN,amine
4967,(E)-2-methoxy-4-methylpent-2-ene,CC(C)/C=C(\C)/OC,385.78,7,"[1, 6, 8]",3,True,CHO,ester
4968,2-methyl-1-[(Z)-prop-1-enoxy]propane,C/C=C\OCC(C)C,385.9,7,"[1, 6, 8]",3,True,CHO,ester
4969,(Z)-1-ethoxy-3-methylbut-1-ene,CCO/C=C\C(C)C,385.9,7,"[1, 6, 8]",3,True,CHO,ester
4970,2-methyl-N-propylpropan-2-amine,CCCNC(C)(C)C,386.15,7,"[1, 6, 7]",3,True,CHN,amine
4971,bicyclo[3.2.0]hept-1-ene,C1CC2CCC2=C1,386.32,7,"[1, 6]",2,True,CH,alkene
4972,(Z)-1-methoxyhex-3-ene,CC/C=C\CCOC,386.34,7,"[1, 6, 8]",3,True,CHO,ester
4973,"N,N-dimethylcyclopent-2-en-1-amine",CN(C)C1CCC=C1,386.64,7,"[1, 6, 7]",3,True,CHN,alkene
4974,"ethenyl 2,2-dimethylpropanoate",CC(C)(C)C(=O)OC=C,386.65,7,"[1, 6, 8]",3,True,CHO,ester
4975,"(3E,5E)-hepta-1,3,5-triene",C/C=C/C=C/C=C,386.65,7,"[1, 6]",2,True,CH,alkene
4976,"2,3,5-trimethylfuran",CC1=CC(=C(O1)C)C,387.15,7,"[1, 6, 8]",3,True,CHO,aromatic
4977,"1,4-dimethylpiperidine",CC1CCN(CC1)C,387.48,7,"[1, 6, 7]",3,True,CHN,amine
4978,"1,3-dimethylpiperidine",CC1CCCN(C1)C,387.48,7,"[1, 6, 7]",3,True,CHN,amine
4979,"1-methylcyclohexa-1,4-diene",CC1=CCC=CC1,387.65,7,"[1, 6]",2,True,CH,alkene
4980,1-(2-methylprop-1-enyl)azetidine,CC(=CN1CCC1)C,387.65,7,"[1, 6, 7]",3,True,CHN,alkene
4981,1-[(E)-but-1-enyl]azetidine,CC/C=C/N1CCC1,387.77,7,"[1, 6, 7]",3,True,CHN,alkene
4982,"1,2-dimethylcyclopenta-1,3-diene",CC1=C(C=CC1)C,387.99,7,"[1, 6]",2,True,CH,alkene
4983,"cyclohepta-1,4-diene",C1CC=CCC=C1,388.65,7,"[1, 6]",2,True,CH,alkene
4984,1-prop-2-enoxybutane,CCCCOCC=C,389.15,7,"[1, 6, 8]",3,True,CHO,ester
4985,methyl pyridine-2-carboxylate,COC(=O)C1=CC=CC=N1,389.15,7,"[1, 6, 7, 8]",4,True,CHON,ester
4986,"1,1-bis(ethenoxy)propane",CCC(OC=C)OC=C,390.15,7,"[1, 6, 8]",3,True,CHO,ester
4987,2-(1-ethoxyethoxy)propane,CCOC(C)OC(C)C,390.15,7,"[1, 6, 8]",3,True,CHO,ester
4988,N-ethyl-N-methylbutan-1-amine,CCCCN(C)CC,390.15,7,"[1, 6, 7]",3,True,CHN,amine
4989,2-methyl-1-[(E)-prop-1-enoxy]prop-1-ene,C/C=C/OC=C(C)C,390.38,7,"[1, 6, 8]",3,True,CHO,ester
4990,(E)-1-[(E)-prop-1-enoxy]but-1-ene,CC/C=C/O/C=C/C,390.5,7,"[1, 6, 8]",3,True,CHO,ester
4991,1-(2-ethoxyethoxy)propan-2-ol,CCOCCOCC(C)O,390.65,7,"[1, 6, 8]",3,True,CHO,ester
4992,"N,N,2-trimethylbutan-2-amine",CCC(C)(C)N(C)C,391.15,7,"[1, 6, 7]",3,True,CHN,amine
4993,"N,N-dimethyl-2-prop-2-enoxyethanamine",CN(C)CCOCC=C,391.3,7,"[1, 6, 7, 8]",4,True,CHON,ester
4994,1-methyl-4-methylidenepiperidine,CN1CCC(=C)CC1,391.31,7,"[1, 6, 7]",3,True,CHN,alkene
4995,"1,2,2,3-tetramethylimidazolidine",CC1(N(CCN1C)C)C,391.62,7,"[1, 6, 7]",3,True,CHN,amine
4996,2-ethyl-5-methylfuran,CCC1=CC=C(O1)C,391.65,7,"[1, 6, 8]",3,True,CHO,aromatic
4997,2-(propan-2-yloxymethoxy)propane,CC(C)OCOC(C)C,391.65,7,"[1, 6, 8]",3,True,CHO,ester
4998,"2,2,4-trimethylpyrrolidine",CC1CC(NC1)(C)C,392.15,7,"[1, 6, 7]",3,True,CHN,amine
4999,1-ethyl-2-methylpyrrolidine,CCN1CCCC1C,392.65,7,"[1, 6, 7]",3,True,CHN,amine
5000,1-hydroxycyclohexane-1-carbonitrile,C1CCC(CC1)(C#N)O,392.65,7,"[1, 6, 7, 8]",4,True,CHON,alcohol
5001,"2,3-dimethyl-2,3-diazabicyclo[2.2.1]hept-5-ene",CN1C2CC(N1C)C=C2,393.01,7,"[1, 6, 7]",3,True,CHN,alkene
5002,2-methoxyethyl 3-oxobutanoate,CC(=O)CC(=O)OCCOC,393.15,7,"[1, 6, 8]",3,True,CHO,ester
5003,1-azabicyclo[2.2.2]oct-2-ene,C1CN2CCC1C=C2,393.78,7,"[1, 6, 7]",3,True,CHN,alkene
5004,"bicyclo[3.2.0]hepta-2,6-diene",C1C=CC2C1C=C2,394.15,7,"[1, 6]",2,True,CH,alkene
5005,2-pyridin-4-ylethanamine,C1=CN=CC=C1CCN,394.15,7,"[1, 6, 7]",3,True,CHN,aromatic
5006,"bicyclo[3.2.0]hepta-1,4,6-triene",C1C=C2C=CC2=C1,394.29,7,"[1, 6]",2,True,CH,alkene
5007,1-azabicyclo[2.2.2]octane,C1CN2CCC1CC2,394.62,7,"[1, 6, 7]",3,True,CHN,amine
5008,"2,3,3-trimethylbutan-2-amine",CC(C)(C)C(C)(C)N,394.65,7,"[1, 6, 7]",3,True,CHN,amine
5009,1-(3-aminopropyl)pyrrolidin-2-one,C1CC(=O)N(C1)CCCN,394.65,7,"[1, 6, 7, 8]",4,True,CHON,amide
5010,"1,2,3-trimethyl-3,6-dihydropyridazine",CC1C=CCN(N1C)C,394.81,7,"[1, 6, 7]",3,True,CHN,alkene
5011,6-methoxyhex-1-ene,COCCCCC=C,395.85,7,"[1, 6, 8]",3,True,CHO,ester
5012,bicyclo[3.2.0]hept-1(5)-ene,C1CC2=C(C1)CC2,395.97,7,"[1, 6]",2,True,CH,alkene
5013,"N,4-dimethylpentan-2-amine",CC(C)CC(C)NC,396.15,7,"[1, 6, 7]",3,True,CHN,amine
5014,"N,N-dimethylcyclopenten-1-amine",CN(C)C1=CCCC1,396.29,7,"[1, 6, 7]",3,True,CHN,alkene
5015,"2-ethyl-2,4-dimethyl-1,3-dioxolane",CCC1(OCC(O1)C)C,396.9,7,"[1, 6, 8]",3,True,CHO,ester
5016,"1,2-diethoxypropane",CCOCC(C)OCC,397.65,7,"[1, 6, 8]",3,True,CHO,ester
5017,"1,1-dimethoxypentane",CCCCC(OC)OC,397.65,7,"[1, 6, 8]",3,True,CHO,ester
5018,"3-oxatricyclo[3.2.1.02,4]octane",C1CC2CC1C3C2O3,397.99,7,"[1, 6, 8]",3,True,CHO,ester
5019,1-ethoxy-3-methylbut-2-ene,CCOCC=C(C)C,398.0,7,"[1, 6, 8]",3,True,CHO,ester
5020,2-methyl-2-prop-2-enylperoxypropane,CC(C)(C)OOCC=C,398.05,7,"[1, 6, 8]",3,True,CHO,alkene
5021,2-methoxy-2-prop-2-enoxypropane,CC(C)(OC)OCC=C,398.05,7,"[1, 6, 8]",3,True,CHO,ester
5022,"2,2-dimethylpent-4-enal",CC(C)(CC=C)C=O,398.15,7,"[1, 6, 8]",3,True,CHO,alkene
5023,"methyl 3,3-dimethylbutanoate",CC(C)(C)CC(=O)OC,398.15,7,"[1, 6, 8]",3,True,CHO,ester
5024,"2,4-dimethylpentan-3-amine",CC(C)C(C(C)C)N,399.15,7,"[1, 6, 7]",3,True,CHN,amine
5025,N-ethyl-3-methylbutan-1-amine,CCNCCC(C)C,399.15,7,"[1, 6, 7]",3,True,CHN,amine
5026,"2,2-dimethylpentanal",CCCC(C)(C)C=O,399.65,7,"[1, 6, 8]",3,True,CHO,aldehyde
5027,N-methylhexan-1-amine,CCCCCCNC,400.15,7,"[1, 6, 7]",3,True,CHN,amine
5028,"4,4-dimethylpent-1-yn-3-one",CC(C)(C)C(=O)C#C,400.52,7,"[1, 6, 8]",3,True,CHO,alkyne
5029,"1-piperidin-4-ylethane-1,2-diol",C1CNCCC1C(CO)O,400.65,7,"[1, 6, 7, 8]",4,True,CHON,alcohol
5030,"2-methyl-2-propan-2-yl-1,3-dioxolane",CC(C)C1(OCCO1)C,400.65,7,"[1, 6, 8]",3,True,CHO,ester
5031,prop-2-enyl 2-methylpropanoate,CC(C)C(=O)OCC=C,400.65,7,"[1, 6, 8]",3,True,CHO,ester
5032,3-methoxycyclohexene,COC1CCCC=C1,400.89,7,"[1, 6, 8]",3,True,CHO,ester
5033,4-methoxycyclohexene,COC1CCC=CC1,400.89,7,"[1, 6, 8]",3,True,CHO,ester
5034,"2,2-dimethoxy-3-methylbutane",CC(C)C(C)(OC)OC,400.93,7,"[1, 6, 8]",3,True,CHO,ester
5035,"1,1-dimethoxy-2,2-dimethylpropane",CC(C)(C)C(OC)OC,400.93,7,"[1, 6, 8]",3,True,CHO,ester
5036,"2,2-dimethylpropyl acetate",CC(=O)OCC(C)(C)C,401.15,7,"[1, 6, 8]",3,True,CHO,ester
5037,"2,2-dimethoxypentane",CCCC(C)(OC)OC,401.37,7,"[1, 6, 8]",3,True,CHO,ester
5038,3-methylbutan-2-yl acetate,CC(C)C(C)OC(=O)C,401.65,7,"[1, 6, 8]",3,True,CHO,ester
5039,"2-ethyl-4,4-dimethyl-5H-1,3-oxazole",CCC1=NC(CO1)(C)C,402.15,7,"[1, 6, 7, 8]",4,True,CHON,ester
5040,"2,3-dimethylpentan-2-ol",CCC(C)C(C)(C)O,402.9,7,"[1, 6, 8]",3,True,CHO,alcohol
5041,"1-methyl-7-oxabicyclo[4.1.0]hepta-2,4-diene",CC12C=CC=CC1O2,403.02,7,"[1, 6, 8]",3,True,CHO,ester
5042,2-ethylpiperidine,CCC1CCCCN1,403.15,7,"[1, 6, 7]",3,True,CHN,amine
5043,"1,1-dimethoxy-2-methylbutane",CCC(C)C(OC)OC,403.72,7,"[1, 6, 8]",3,True,CHO,ester
5044,"1,1-dimethoxy-3-methylbutane",CC(C)CC(OC)OC,403.72,7,"[1, 6, 8]",3,True,CHO,ester
5045,"1-(2,2-dimethylcyclopropyl)ethanone",CC(=O)C1CC1(C)C,404.15,7,"[1, 6, 8]",3,True,CHO,ketone
5046,1-(1-ethoxyethoxy)propane,CCCOC(C)OCC,404.16,7,"[1, 6, 8]",3,True,CHO,ester
5047,"3,3-dimethylpentan-2-one",CCC(C)(C)C(=O)C,404.65,7,"[1, 6, 8]",3,True,CHO,ketone
5048,2-ethylpent-4-enal,CCC(CC=C)C=O,404.66,7,"[1, 6, 8]",3,True,CHO,alkene
5049,prop-2-ynyl 2-methylprop-2-enoate,CC(=C)C(=O)OCC#C,404.66,7,"[1, 6, 8]",3,True,CHO,ester
5050,tert-butyl prop-2-ynoate,CC(C)(C)OC(=O)C#C,404.87,7,"[1, 6, 8]",3,True,CHO,ester
5051,butan-2-yl prop-2-enoate,CCC(C)OC(=O)C=C,404.9,7,"[1, 6, 8]",3,True,CHO,ester
5052,2-methylidenehexanal,CCCCC(=C)C=O,404.98,7,"[1, 6, 8]",3,True,CHO,alkene
5053,3-ethylpent-1-en-3-ol,CCC(CC)(C=C)O,405.15,7,"[1, 6, 8]",3,True,CHO,alkene
5054,"2,4-dimethylpent-4-en-2-ol",CC(=C)CC(C)(C)O,405.15,7,"[1, 6, 8]",3,True,CHO,alkene
5055,5-methylhexan-2-amine,CC(C)CCC(C)N,405.15,7,"[1, 6, 7]",3,True,CHN,amine
5056,1-propylpyrrolidine,CCCN1CCCC1,405.65,7,"[1, 6, 7]",3,True,CHN,amine
5057,N-ethyl-N-(oxiran-2-ylmethyl)ethanamine,CCN(CC)CC1CO1,405.89,7,"[1, 6, 7, 8]",4,True,CHON,ester
5058,ethyl 2-methylbutanoate,CCC(C)C(=O)OCC,406.25,7,"[1, 6, 8]",3,True,CHO,ester
5059,2-methylbut-3-yn-2-yl acetate,CC(=O)OC(C)(C)C#C,406.4,7,"[1, 6, 8]",3,True,CHO,ester
5060,methyl (E)-hex-2-enoate,CCC/C=C/C(=O)OC,406.65,7,"[1, 6, 8]",3,True,CHO,ester
5061,methyl (Z)-hex-2-enoate,CCC/C=C\C(=O)OC,406.65,7,"[1, 6, 8]",3,True,CHO,ester
5062,"2-oxabicyclo[3.2.1]octa-3,6-diene",C1C2C=CC1OC=C2,407.05,7,"[1, 6, 8]",3,True,CHO,ester
5063,"4-oxabicyclo[5.1.0]octa-2,5-diene",C1C2C1C=COC=C2,407.05,7,"[1, 6, 8]",3,True,CHO,ester
5064,ethenyl pentanoate,CCCCC(=O)OC=C,407.15,7,"[1, 6, 8]",3,True,CHO,ester
5065,N-propylbutan-1-amine,CCCCNCCC,407.15,7,"[1, 6, 7]",3,True,CHN,amine
5066,"2,5-dimethylpiperidine",CC1CCC(NC1)C,407.15,7,"[1, 6, 7]",3,True,CHN,amine
5067,"3,4-dimethylpentanal",CC(C)C(C)CC=O,407.54,7,"[1, 6, 8]",3,True,CHO,aldehyde
5068,2-ethyl-3-methylbutanal,CCC(C=O)C(C)C,407.54,7,"[1, 6, 8]",3,True,CHO,aldehyde
5069,2-oxabicyclo[3.2.1]oct-3-ene,C1CC2CC1C=CO2,407.89,7,"[1, 6, 8]",3,True,CHO,ester
5070,ethyl pent-4-ynoate,CCOC(=O)CCC#C,408.1,7,"[1, 6, 8]",3,True,CHO,ester
5071,3-methoxybutyl acetate,CC(CCOC(=O)C)OC,408.15,7,"[1, 6, 8]",3,True,CHO,ester