,Name,SMILES,Tb,C Atom,Atom,Count Unique Atom,Pass Screen,Atom2,Func. Group
4640,"2-propylpropane-1,3-diol",CCCC(CO)CO,520.8,6,"[1, 6, 8]",3,True,CHO,alcohol
4641,"hexane-1,4-diol",CCC(CCCO)O,520.8,6,"[1, 6, 8]",3,True,CHO,alcohol
4642,"hexane-1,3-diol",CCCC(CCO)O,520.8,6,"[1, 6, 8]",3,True,CHO,alcohol
4643,"3-methylpentane-1,5-diol",CC(CCO)CCO,521.55,6,"[1, 6, 8]",3,True,CHO,alcohol
4644,4-(2-hydroxyethoxy)-4-oxobut-2-enoic acid,C(COC(=O)C=CC(=O)O)O,521.65,6,"[1, 6, 8]",3,True,CHO,carboxylic_acid
4645,3-methylpiperidin-2-one,CC1CCCNC1=O,522.65,6,"[1, 6, 7, 8]",4,True,CHON,amide
4646,"1,1,1,2-tetramethoxyethane",COCC(OC)(OC)OC,523.15,6,"[1, 6, 8]",3,True,CHO,ester
4647,[1-[methyl(nitroso)amino]-2-oxopropyl] acetate,CC(=O)C(N(C)N=O)OC(=O)C,524.37,6,"[1, 6, 7, 8]",4,True,CHON,ester
4648,"4,6-dimethoxypyrimidin-2-amine",COC1=CC(=NC(=N1)N)OC,525.15,6,"[1, 6, 7, 8]",4,True,CHON,ester
4649,dimethyl 2-aminobutanedioate,COC(=O)CC(C(=O)OC)N,525.41,6,"[1, 6, 7, 8]",4,True,CHON,ester
4650,3-(dimethylamino)propylurea,CN(C)CCCNC(=O)N,525.89,6,"[1, 6, 7, 8]",4,True,CHON,amine
4651,2-hydroxyhexanedial,C(CC=O)CC(C=O)O,525.94,6,"[1, 6, 8]",3,True,CHO,alcohol
4652,2-hydroxy-3-methylcyclopent-2-en-1-one,CC1=C(C(=O)CC1)O,525.95,6,"[1, 6, 8]",3,True,CHO,alkene
4653,3-hydroxy-2-methylcyclopent-2-en-1-one,CC1=C(CCC1=O)O,525.95,6,"[1, 6, 8]",3,True,CHO,alkene
4654,2-[2-(2-aminoethoxy)ethoxy]ethanamine,C(COCCOCCN)N,526.78,6,"[1, 6, 7, 8]",4,True,CHON,ester
4655,"3-methylcyclopentane-1,2-diol",CC1CCC(C1O)O,527.18,6,"[1, 6, 8]",3,True,CHO,alcohol
4656,[2-(hydroxymethyl)cyclobutyl]methanol,C1CC(C1CO)CO,527.58,6,"[1, 6, 8]",3,True,CHO,alcohol
4657,4-methylpyridin-3-amine,CC1=C(C=NC=C1)N,528.15,6,"[1, 6, 7]",3,True,CHN,aromatic
4658,oxane-4-carboxylic acid,C1COCCC1C(=O)O,528.89,6,"[1, 6, 8]",3,True,CHO,carboxylic_acid
4659,methyl 2-[acetyloxymethyl(nitroso)amino]acetate,CC(=O)OCN(CC(=O)OC)N=O,529.16,6,"[1, 6, 7, 8]",4,True,CHON,ester
4660,"hex-3-yne-2,5-diol",CC(C#CC(C)O)O,529.36,6,"[1, 6, 8]",3,True,CHO,alkyne
4661,"hexane-2,3,4-triol",CCC(C(C(C)O)O)O,529.65,6,"[1, 6, 8]",3,True,CHO,alcohol
4662,"3-propyl-1,4-dihydropyrazol-5-one",CCCC1=NNC(=O)C1,531.04,6,"[1, 6, 7, 8]",4,True,CHON,amide
4663,2-propan-2-yl-1H-imidazole,CC(C)C1=NC=CN1,531.15,6,"[1, 6, 7]",3,True,CHN,aromatic
4664,"1-N-(2-aminopropyl)propane-1,2-diamine",CC(CNCC(C)N)N,531.23,6,"[1, 6, 7]",3,True,CHN,amine
4665,piperidine-3-carboxamide,C1CC(CNC1)C(=O)N,531.38,6,"[1, 6, 7, 8]",4,True,CHON,amide
4666,piperidine-2-carboxamide,C1CCNC(C1)C(=O)N,531.38,6,"[1, 6, 7, 8]",4,True,CHON,amide
4667,piperidine-4-carboxamide,C1CNCCC1C(=O)N,531.38,6,"[1, 6, 7, 8]",4,True,CHON,amide
4668,"1-methylcyclopentane-1,2-diol",CC1(CCCC1O)O,532.09,6,"[1, 6, 8]",3,True,CHO,alcohol
4669,"N'-(2-aminoethyl)butane-1,4-diamine",C(CCNCCN)CN,532.11,6,"[1, 6, 7]",3,True,CHN,amine
4670,"2,6,7-trioxabicyclo[2.2.2]octan-4-ylmethanol",C1C2(COC(O1)OC2)CO,532.17,6,"[1, 6, 8]",3,True,CHO,ester
4671,"5,6,12,13-tetraoxa-1,3,8,10-tetrazatricyclo[8.4.0.03,8]tetradecane",C1N2COOCN2CN3N1COOC3,532.94,6,"[1, 6, 7, 8]",4,True,CHON,ester
4672,N-hydroxyhexanamide,CCCCCC(=O)NO,533.1,6,"[1, 6, 7, 8]",4,True,CHON,amide
4673,"cyclohexa-2,5-diene-1,4-diimine",C1=CC(=N)C=CC1=N,533.3,6,"[1, 6, 7]",3,True,CHN,alkene
4674,"cyclohexa-3,5-diene-1,2-diol",C1=CC(C(C=C1)O)O,534.44,6,"[1, 6, 8]",3,True,CHO,alkene
4675,6-aminohexanamide,C(CCC(=O)N)CCN,535.81,6,"[1, 6, 7, 8]",4,True,CHON,amide
4676,2-methyl-4-oxopentanoic acid,CC(CC(=O)C)C(=O)O,535.82,6,"[1, 6, 8]",3,True,CHO,carboxylic_acid
4677,"3-hydroxyhexane-2,5-dione",CC(=O)CC(C(=O)C)O,536.36,6,"[1, 6, 8]",3,True,CHO,alcohol
4678,2-methylpropyl N-(hydroxymethyl)carbamate,CC(C)COC(=O)NCO,537.01,6,"[1, 6, 7, 8]",4,True,CHON,ester
4679,3-prop-2-enoyloxypropanoic acid,C=CC(=O)OCCC(=O)O,537.29,6,"[1, 6, 8]",3,True,CHO,carboxylic_acid
4680,2-(2-hydroxyethylamino)ethyl acetate,CC(=O)OCCNCCO,537.45,6,"[1, 6, 7, 8]",4,True,CHON,ester
4681,methyl 2-hydroxy-2-methyl-3-oxobutanoate,CC(=O)C(C)(C(=O)OC)O,537.92,6,"[1, 6, 8]",3,True,CHO,ester
4682,"hexa-2,4-diyne-1,6-diol",C(C#CC#CCO)O,539.24,6,"[1, 6, 8]",3,True,CHO,alkyne
4683,"(2E,4E)-6-oxohexa-2,4-dienoic acid",C(=C/C=O)\C=C\C(=O)O,539.37,6,"[1, 6, 8]",3,True,CHO,carboxylic_acid
4684,"2-prop-2-enoxypropane-1,3-diol",C=CCOC(CO)CO,539.9,6,"[1, 6, 8]",3,True,CHO,ester
4685,4-ethoxy-4-oxobutanoic acid,CCOC(=O)CCC(=O)O,540.61,6,"[1, 6, 8]",3,True,CHO,carboxylic_acid
4686,5-methoxy-5-oxopentanoic acid,COC(=O)CCCC(=O)O,540.61,6,"[1, 6, 8]",3,True,CHO,carboxylic_acid
4687,5-methylpyrrolidine-2-carboxylic acid,CC1CCC(N1)C(=O)O,541.55,6,"[1, 6, 7, 8]",4,True,CHON,carboxylic_acid
4688,2-(4-aminopiperazin-1-yl)ethanol,C1CN(CCN1CCO)N,542.15,6,"[1, 6, 7, 8]",4,True,CHON,alcohol
4689,2-(2-hydroxypropoxy)propan-1-ol,CC(CO)OCC(C)O,542.78,6,"[1, 6, 8]",3,True,CHO,ester
4690,"2,4,5-trimethyl-1H-imidazole",CC1=C(N=C(N1)C)C,544.15,6,"[1, 6, 7]",3,True,CHN,aromatic
4691,N-(1-acetamidoethyl)acetamide,CC(NC(=O)C)NC(=O)C,544.52,6,"[1, 6, 7, 8]",4,True,CHON,amide
4692,2-acetamido-N-methylpropanamide,CC(C(=O)NC)NC(=O)C,544.52,6,"[1, 6, 7, 8]",4,True,CHON,amide
4693,"1,5,5-trimethylimidazolidine-2,4-dione",CC1(C(=O)NC(=O)N1C)C,544.76,6,"[1, 6, 7, 8]",4,True,CHON,amide
4694,(E)-4-ethoxy-4-oxobut-2-enoic acid,CCOC(=O)/C=C/C(=O)O,544.77,6,"[1, 6, 8]",3,True,CHO,carboxylic_acid
4695,(Z)-4-ethoxy-4-oxobut-2-enoic acid,CCOC(=O)/C=C\C(=O)O,544.77,6,"[1, 6, 8]",3,True,CHO,carboxylic_acid
4696,"N,N'-diethyloxamide",CCNC(=O)C(=O)NCC,544.96,6,"[1, 6, 7, 8]",4,True,CHON,amide
4697,hex-2-enedinitrile,C(CC#N)C=CC#N,545.2,6,"[1, 6, 7]",3,True,CHN,alkene
4698,2-piperazin-2-ylethanol,C1CNC(CN1)CCO,545.71,6,"[1, 6, 7, 8]",4,True,CHON,alcohol
4699,2-[2-(2-aminoethoxy)ethoxy]ethanol,C(COCCOCCO)N,546.43,6,"[1, 6, 7, 8]",4,True,CHON,ester
4700,"3-methyloxane-2,6-dione",CC1CCC(=O)OC1=O,546.65,6,"[1, 6, 8]",3,True,CHO,ether
4701,(E)-hex-3-enedinitrile,C(/C=C/CC#N)C#N,547.0,6,"[1, 6, 7]",3,True,CHN,alkene
4702,"1,3,5-trimethyl-1,3,5-triazinane-2,4,6-trione",CN1C(=O)N(C(=O)N(C1=O)C)C,547.2,6,"[1, 6, 7, 8]",4,True,CHON,aromatic
4703,"4-hydroxy-2,5-dimethylfuran-3-one",CC1C(=O)C(=C(O1)C)O,548.23,6,"[1, 6, 8]",3,True,CHO,ester
4704,4-(dimethylamino)-4-oxobutanoic acid,CN(C)C(=O)CCC(=O)O,548.7,6,"[1, 6, 7, 8]",4,True,CHON,carboxylic_acid
4705,3-aminoazepan-2-one,C1CCNC(=O)C(C1)N,549.6,6,"[1, 6, 7, 8]",4,True,CHON,amide
4706,"4-methyloxane-2,6-dione",CC1CC(=O)OC(=O)C1,550.15,6,"[1, 6, 8]",3,True,CHO,ether
4707,diethyl ethanediimidate,CCOC(=N)C(=N)OCC,550.4,6,"[1, 6, 7, 8]",4,True,CHON,ester
4708,N'-hydroxypyridine-2-carboximidamide,C1=CC=NC(=C1)C(=NO)N,550.42,6,"[1, 6, 7, 8]",4,True,CHON,aromatic
4709,piperidine-4-carboxylic acid,C1CNCCC1C(=O)O,550.49,6,"[1, 6, 7, 8]",4,True,CHON,carboxylic_acid
4710,piperidine-3-carboxylic acid,C1CC(CNC1)C(=O)O,550.49,6,"[1, 6, 7, 8]",4,True,CHON,carboxylic_acid
4711,piperidine-2-carboxylic acid,C1CCNC(C1)C(=O)O,550.49,6,"[1, 6, 7, 8]",4,True,CHON,carboxylic_acid
4712,methyl 2-cyano-3-oxobutanoate,CC(=O)C(C#N)C(=O)OC,550.61,6,"[1, 6, 7, 8]",4,True,CHON,ester
4713,"2-amino-3,3-dimethylbutanoic acid",CC(C)(C)C(C(=O)O)N,551.25,6,"[1, 6, 7, 8]",4,True,CHON,carboxylic_acid
4714,3-(2-aminopropylamino)propan-1-ol,CC(CNCCCO)N,551.32,6,"[1, 6, 7, 8]",4,True,CHON,alcohol
4715,3-imidazol-1-ylpropan-1-amine,C1=CN(C=N1)CCCN,552.65,6,"[1, 6, 7]",3,True,CHN,aromatic
4716,"4-methylpiperidine-2,6-dione",CC1CC(=O)NC(=O)C1,553.15,6,"[1, 6, 7, 8]",4,True,CHON,amide
4717,"1-ethylpiperazine-2,3-dione",CCN1CCNC(=O)C1=O,553.46,6,"[1, 6, 7, 8]",4,True,CHON,amide
4718,"bicyclo[3.1.0]hexane-2,3,4-trione",C1C2C1C(=O)C(=O)C2=O,553.82,6,"[1, 6, 8]",3,True,CHO,ketone
4719,2-amino-4-methylpentanoic acid,CC(C)CC(C(=O)O)N,554.04,6,"[1, 6, 7, 8]",4,True,CHON,carboxylic_acid
4720,2-amino-3-methylpentanoic acid,CCC(C)C(C(=O)O)N,554.04,6,"[1, 6, 7, 8]",4,True,CHON,carboxylic_acid
4721,3-amino-4-methylpentanoic acid,CC(C)C(CC(=O)O)N,554.04,6,"[1, 6, 7, 8]",4,True,CHON,carboxylic_acid
4722,2-aminohexanoic acid,CCCCC(C(=O)O)N,554.48,6,"[1, 6, 7, 8]",4,True,CHON,carboxylic_acid
4723,5-aminohexanoic acid,CC(CCCC(=O)O)N,554.48,6,"[1, 6, 7, 8]",4,True,CHON,carboxylic_acid
4724,4-aminohexanoic acid,CCC(CCC(=O)O)N,554.48,6,"[1, 6, 7, 8]",4,True,CHON,carboxylic_acid
4725,6-aminohexanoic acid,C(CCC(=O)O)CCN,554.92,6,"[1, 6, 7, 8]",4,True,CHON,carboxylic_acid
4726,(E)-hex-2-enedinitrile,C(CC#N)/C=C/C#N,555.0,6,"[1, 6, 7]",3,True,CHN,alkene
4727,6-methyl-1H-pyridin-2-one,CC1=CC=CC(=O)N1,555.15,6,"[1, 6, 7, 8]",4,True,CHON,aromatic
4728,"7-oxabicyclo[4.1.0]hept-4-ene-2,3-diol",C1=CC2C(O2)C(C1O)O,555.76,6,"[1, 6, 8]",3,True,CHO,ester
4729,2-(dimethylaminomethylidene)propanedinitrile,CN(C)C=C(C#N)C#N,557.52,6,"[1, 6, 7]",3,True,CHN,alkene
4730,4-[ethyl(nitroso)amino]butanoic acid,CCN(CCCC(=O)O)N=O,558.23,6,"[1, 6, 7, 8]",4,True,CHON,alcohol
4731,"(2,5-dioxopyrrolidin-1-yl) acetate",CC(=O)ON1C(=O)CCC1=O,558.86,6,"[1, 6, 7, 8]",4,True,CHON,amide
4732,2-(2-oxopyrrolidin-1-yl)acetamide,C1CC(=O)N(C1)CC(=O)N,559.22,6,"[1, 6, 7, 8]",4,True,CHON,amide
4733,"1,2,3,6-tetrahydropyridine-5-carboxylic acid",C1CNCC(=C1)C(=O)O,559.3,6,"[1, 6, 7, 8]",4,True,CHON,carboxylic_acid
4734,[4-(hydroxymethyl)piperazin-1-yl]methanol,C1CN(CCN1CO)CO,561.8,6,"[1, 6, 7, 8]",4,True,CHON,alcohol
4735,2-(3-methylbut-2-enyl)guanidine,CC(=CCN=C(N)N)C,562.54,6,"[1, 6, 7]",3,True,CHN,alkene
4736,3-methoxycarbonylbut-3-enoic acid,COC(=O)C(=C)CC(=O)O,563.03,6,"[1, 6, 8]",3,True,CHO,carboxylic_acid
4737,3-oxocyclopentane-1-carboxylic acid,C1CC(=O)CC1C(=O)O,565.49,6,"[1, 6, 8]",3,True,CHO,carboxylic_acid
4738,2-(ethoxymethylidene)propanedinitrile,CCOC=C(C#N)C#N,567.5,6,"[1, 6, 7, 8]",4,True,CHON,ester
4739,1-aminocyclopentane-1-carboxylic acid,C1CCC(C1)(C(=O)O)N,570.44,6,"[1, 6, 7, 8]",4,True,CHON,carboxylic_acid
4740,1-ethyl-1-nitroso-3-(2-oxopropyl)urea,CCN(C(=O)NCC(=O)C)N=O,570.63,6,"[1, 6, 7, 8]",4,True,CHON,amide
4741,2-methyl-5-oxopyrrolidine-2-carbonitrile,CC1(CCC(=O)N1)C#N,570.85,6,"[1, 6, 7, 8]",4,True,CHON,amide
4742,"2-hydroxy-3,3-dimethylbutanoic acid",CC(C)(C)C(C(=O)O)O,570.9,6,"[1, 6, 8]",3,True,CHO,alcohol
4743,1-(2-hydroxyethylamino)butan-2-ol,CCC(CNCCO)O,570.97,6,"[1, 6, 7, 8]",4,True,CHON,alcohol
4744,2-ethyl-2-hydroxybutanoic acid,CCC(CC)(C(=O)O)O,571.34,6,"[1, 6, 8]",3,True,CHO,alcohol
4745,3-(3-hydroxypropylamino)propan-1-ol,C(CNCCCO)CO,571.41,6,"[1, 6, 7, 8]",4,True,CHON,alcohol
4746,ethyl 2-[(2-aminoacetyl)amino]acetate,CCOC(=O)CNC(=O)CN,571.67,6,"[1, 6, 7, 8]",4,True,CHON,ester
4747,"3,4,8,9,12,13-hexaoxa-1,6-diazabicyclo[4.4.4]tetradecane",C1N2COOCN(COO1)COOC2,571.9,6,"[1, 6, 7, 8]",4,True,CHON,ester
4748,1-nitrosopiperidine-2-carboxylic acid,C1CCN(C(C1)C(=O)O)N=O,573.51,6,"[1, 6, 7, 8]",4,True,CHON,alcohol
4749,2-hydroxy-4-methylpentanoic acid,CC(C)CC(C(=O)O)O,573.69,6,"[1, 6, 8]",3,True,CHO,alcohol
4750,methyl 3-hydroxy-2-(hydroxymethyl)-2-methylpropanoate,CC(CO)(CO)C(=O)OC,576.23,6,"[1, 6, 8]",3,True,CHO,ester
4751,(Z)-hex-2-enedinitrile,C(CC#N)/C=C\C#N,577.0,6,"[1, 6, 7]",3,True,CHN,alkene
4752,"1,4-dimethylpiperazine-2,5-dione",CN1CC(=O)N(CC1=O)C,578.15,6,"[1, 6, 7, 8]",4,True,CHON,amide
4753,2-methylprop-1-enyl acetate,CC(=COC(=O)C)C,580.01,6,"[1, 6, 8]",3,True,CHO,ester
4754,"1,3-dimethyl-1,3-diazinane-2,4,6-trione",CN1C(=O)CC(=O)N(C1=O)C,580.9,6,"[1, 6, 7, 8]",4,True,CHON,amide
4755,2-(propan-2-ylideneamino)oxypropanoic acid,CC(C(=O)O)ON=C(C)C,580.93,6,"[1, 6, 7, 8]",4,True,CHON,carboxylic_acid
4756,"4-iminocyclohexa-2,5-dien-1-one",C1=CC(=O)C=CC1=N,582.84,6,"[1, 6, 7, 8]",4,True,CHON,alkene
4757,"3,6-dimethylpiperazine-2,5-dione",CC1C(=O)NC(C(=O)N1)C,584.5,6,"[1, 6, 7, 8]",4,True,CHON,amide
4758,"5-ethyl-5-methylimidazolidine-2,4-dione",CCC1(C(=O)NC(=O)N1)C,585.14,6,"[1, 6, 7, 8]",4,True,CHON,amide
4759,4-acetamidobutanoic acid,CC(=O)NCCCC(=O)O,586.43,6,"[1, 6, 7, 8]",4,True,CHON,carboxylic_acid
4760,2-[bis(2-aminoethyl)amino]ethanol,C(CN(CCN)CCO)N,586.56,6,"[1, 6, 7, 8]",4,True,CHON,alcohol
4761,hexanediamide,C(CCC(=O)N)CC(=O)N,589.68,6,"[1, 6, 7, 8]",4,True,CHON,amide
4762,(E)-2-acetamidobut-2-enoic acid,C/C=C(\C(=O)O)/NC(=O)C,590.47,6,"[1, 6, 7, 8]",4,True,CHON,carboxylic_acid
4763,(Z)-4-(ethylamino)-4-oxobut-2-enoic acid,CCNC(=O)/C=C\C(=O)O,590.59,6,"[1, 6, 7, 8]",4,True,CHON,carboxylic_acid
4764,"propan-2-yl N,N-bis(hydroxymethyl)carbamate",CC(C)OC(=O)N(CO)CO,591.46,6,"[1, 6, 7, 8]",4,True,CHON,ester
4765,"1-(2-hydroxyethyl)pyrrolidine-2,5-dione",C1CC(=O)N(C1=O)CCO,592.82,6,"[1, 6, 7, 8]",4,True,CHON,amide
4766,"4-tert-butyl-1,2,4-triazolidine-3,5-dione",CC(C)(C)N1C(=O)NNC1=O,594.51,6,"[1, 6, 7, 8]",4,True,CHON,aromatic
4767,"[5-(hydroxymethyl)-1,3-dioxan-5-yl]methanol",C1C(COCO1)(CO)CO,594.93,6,"[1, 6, 8]",3,True,CHO,ester
4768,"N,N-bis(2-hydroxypropyl)nitrous amide",CC(CN(CC(C)O)N=O)O,596.2,6,"[1, 6, 7, 8]",4,True,CHON,alcohol
4769,N-(4-hydroxybutyl)-N-(2-hydroxyethyl)nitrous amide,C(CCO)CN(CCO)N=O,597.08,6,"[1, 6, 7, 8]",4,True,CHON,alcohol
4770,methyl 4-[carbamoyl(nitroso)amino]butanoate,COC(=O)CCCN(C(=O)N)N=O,597.34,6,"[1, 6, 7, 8]",4,True,CHON,ester
4771,"4-(2,2-dimethylhydrazinyl)-4-oxobutanoic acid",CN(C)NC(=O)CCC(=O)O,598.87,6,"[1, 6, 7, 8]",4,True,CHON,carboxylic_acid
4772,ethyl N-(2-cyanoacetyl)carbamate,CCOC(=O)NC(=O)CC#N,601.22,6,"[1, 6, 7, 8]",4,True,CHON,ester
4773,ethyl (NE)-N-ethoxycarbonyliminocarbamate,CCOC(=O)/N=N/C(=O)OCC,602.52,6,"[1, 6, 7, 8]",4,True,CHON,ester
4774,2-hydrazinyl-4-methylpentanoic acid,CC(C)CC(C(=O)O)NN,604.21,6,"[1, 6, 7, 8]",4,True,CHON,alcohol
4775,"5,5-dimethyl-2,4-dioxo-1,3-oxazolidine-3-carboxamide",CC1(C(=O)N(C(=O)O1)C(=O)N)C,604.47,6,"[1, 6, 7, 8]",4,True,CHON,ester
4776,6-amino-6-oxohexanoic acid,C(CCC(=O)O)CC(=O)N,608.79,6,"[1, 6, 7, 8]",4,True,CHON,carboxylic_acid
4777,2-cyano-N-methyl-N-(methylcarbamoyl)acetamide,CNC(=O)N(C)C(=O)CC#N,609.31,6,"[1, 6, 7, 8]",4,True,CHON,amide
4778,"3-methylpentane-1,3,5-triol",CC(CCO)(CCO)O,610.19,6,"[1, 6, 8]",3,True,CHO,alcohol
4779,"3-(hydroxymethyl)pentane-2,4-diol",CC(C(CO)C(C)O)O,612.1,6,"[1, 6, 8]",3,True,CHO,alcohol
4780,"hexane-1,2,5-triol",CC(CCC(CO)O)O,612.54,6,"[1, 6, 8]",3,True,CHO,alcohol
4781,"hexane-1,2,3-triol",CCCC(C(CO)O)O,612.54,6,"[1, 6, 8]",3,True,CHO,alcohol
4782,"2-methoxyethyl N,N-bis(hydroxymethyl)carbamate",COCCOC(=O)N(CO)CO,614.32,6,"[1, 6, 7, 8]",4,True,CHON,ester
4783,[acetyl(methylcarbamoyl)amino] N-methylcarbamate,CC(=O)N(C(=O)NC)OC(=O)NC,615.62,6,"[1, 6, 7, 8]",4,True,CHON,amide
4784,"1,5-dimethyl-1,3-diazinane-2,4,6-trione",CC1C(=O)NC(=O)N(C1=O)C,616.61,6,"[1, 6, 7, 8]",4,True,CHON,amide
4785,"2,4-dihydroxy-3,3-dimethylbutanenitrile",CC(C)(CO)C(C#N)O,619.65,6,"[1, 6, 7, 8]",4,True,CHON,alcohol
4786,2-(2-carbamoyloxyethoxy)ethyl carbamate,C(COC(=O)N)OCCOC(=O)N,620.8,6,"[1, 6, 7, 8]",4,True,CHON,ester
4787,2-[2-(2-hydroxyethylamino)ethylamino]ethanol,C(CNCCO)NCCO,621.58,6,"[1, 6, 7, 8]",4,True,CHON,alcohol
4788,"cyclohexane-1,2,3-triol",C1CC(C(C(C1)O)O)O,623.63,6,"[1, 6, 8]",3,True,CHO,alcohol
4789,2-prop-2-enylpropanedioic acid,C=CCC(C(=O)O)C(=O)O,624.14,6,"[1, 6, 8]",3,True,CHO,alkene
4790,"2,2-dimethylbutanedioic acid",CC(C)(CC(=O)O)C(=O)O,624.67,6,"[1, 6, 8]",3,True,CHO,alcohol
4791,4-hydroxy-N-(2-hydroxyethyl)butanamide,C(CC(=O)NCCO)CO,625.28,6,"[1, 6, 7, 8]",4,True,CHON,alcohol
4792,"2,6-diaminohexanoic acid",C(CCN)CC(C(=O)O)N,627.01,6,"[1, 6, 7, 8]",4,True,CHON,carboxylic_acid
4793,"2,3-dimethylbutanedioic acid",CC(C(C)C(=O)O)C(=O)O,627.02,6,"[1, 6, 8]",3,True,CHO,alcohol
4794,2-propylpropanedioic acid,CCCC(C(=O)O)C(=O)O,627.46,6,"[1, 6, 8]",3,True,CHO,alcohol
4795,3-methylpentanedioic acid,CC(CC(=O)O)CC(=O)O,627.46,6,"[1, 6, 8]",3,True,CHO,alcohol
4796,2-ethylbutanedioic acid,CCC(CC(=O)O)C(=O)O,627.46,6,"[1, 6, 8]",3,True,CHO,alcohol
4797,2-methylpentanedioic acid,CC(CCC(=O)O)C(=O)O,627.46,6,"[1, 6, 8]",3,True,CHO,alcohol
4798,"3,4-dihydroxyhexane-2,5-dione",CC(=O)C(C(C(=O)C)O)O,628.1,6,"[1, 6, 8]",3,True,CHO,alcohol
4799,2-hydroxypropyl N-(2-hydroxyethyl)carbamate,CC(COC(=O)NCCO)O,629.19,6,"[1, 6, 7, 8]",4,True,CHON,ester
4800,"1,3-bis(hydroxymethyl)-1,3-diazinan-2-one",C1CN(C(=O)N(C1)CO)CO,629.62,6,"[1, 6, 7, 8]",4,True,CHON,amide
4801,(E)-3-methylpent-2-enedioic acid,C/C(=C\C(=O)O)/CC(=O)O,631.94,6,"[1, 6, 8]",3,True,CHO,alkene
4802,(E)-hex-3-enedioic acid,C(/C=C/CC(=O)O)C(=O)O,632.06,6,"[1, 6, 8]",3,True,CHO,alkene
4803,"3,6-dihydroxy-3,3a,6,6a-tetrahydrofuro[3,2-b]furan-2,5-dione",C12C(C(C(=O)O1)O)OC(=O)C2O,633.28,6,"[1, 6, 8]",3,True,CHO,ester
4804,"cyclobutane-1,2-dicarboxylic acid",C1CC(C1C(=O)O)C(=O)O,634.24,6,"[1, 6, 8]",3,True,CHO,alcohol
4805,"cyclobutane-1,3-dicarboxylic acid",C1C(CC1C(=O)O)C(=O)O,634.24,6,"[1, 6, 8]",3,True,CHO,alcohol
4806,"1,1-bis(2-hydroxyethyl)-3-methylurea",CNC(=O)N(CCO)CCO,637.72,6,"[1, 6, 7, 8]",4,True,CHON,amide
4807,"cyclobutane-1,1-dicarboxylic acid",C1CC(C1)(C(=O)O)C(=O)O,639.15,6,"[1, 6, 8]",3,True,CHO,alcohol
4808,2-(3-oxobutanoylamino)acetic acid,CC(=O)CC(=O)NCC(=O)O,640.3,6,"[1, 6, 7, 8]",4,True,CHON,carboxylic_acid
4809,"2-amino-3,5-dioxohexanamide",CC(=O)CC(=O)C(C(=O)N)N,643.11,6,"[1, 6, 7, 8]",4,True,CHON,amide
4810,"hexa-2,4-diynedioic acid",C(#CC(=O)O)C#CC(=O)O,645.9,6,"[1, 6, 8]",3,True,CHO,alkyne
4811,"6-methyloxane-2,4,5-triol",CC1C(C(CC(O1)O)O)O,645.91,6,"[1, 6, 8]",3,True,CHO,ester
4812,2-(4-hydroxy-2-oxopyrrolidin-1-yl)acetamide,C1C(CN(C1=O)CC(=O)N)O,646.73,6,"[1, 6, 7, 8]",4,True,CHON,amide
4813,2-cyano-N-(ethylcarbamoyl)acetamide,CCNC(=O)NC(=O)CC#N,647.04,6,"[1, 6, 7, 8]",4,True,CHON,amide
4814,2-(1-carboxyethoxy)propanoic acid,CC(C(=O)O)OC(C)C(=O)O,649.44,6,"[1, 6, 8]",3,True,CHO,carboxylic_acid
4815,2-[bis(cyanomethyl)amino]acetonitrile,C(C#N)N(CC#N)CC#N,655.56,6,"[1, 6, 7]",3,True,CHN,amine
4816,2-(2-aminopropanoylamino)propanoic acid,CC(C(=O)NC(C)C(=O)O)N,658.08,6,"[1, 6, 7, 8]",4,True,CHON,carboxylic_acid
4817,2-(3-aminopropanoylamino)propanoic acid,CC(C(=O)O)NC(=O)CCN,658.52,6,"[1, 6, 7, 8]",4,True,CHON,carboxylic_acid
4818,"2-hydroxypropane-1,2,3-tricarboxylic acid",C(C(=O)O)C(CC(=O)O)(C(=O)O)O,659.0,6,"[1, 6, 8]",3,True,CHO,alcohol
4819,"1-cyano-2,3-bis(methoxymethyl)guanidine",COCNC(=NCOC)NC#N,660.7,6,"[1, 6, 7, 8]",4,True,CHON,ester
4820,"2,2-bis(hydroxymethyl)butanoic acid",CCC(CO)(CO)C(=O)O,663.52,6,"[1, 6, 8]",3,True,CHO,alcohol
4821,"2,3-dihydroxypropyl propanoate",CCC(=O)OCC(CO)O,670.76,6,"[1, 6, 8]",3,True,CHO,ester
4822,3-(2-carboxyethylamino)propanoic acid,C(CNCCC(=O)O)C(=O)O,678.07,6,"[1, 6, 7, 8]",4,True,CHON,carboxylic_acid
4823,2-[bis(2-hydroxyethyl)amino]acetic acid,C(CO)N(CCO)CC(=O)O,679.19,6,"[1, 6, 7, 8]",4,True,CHON,carboxylic_acid
4824,"2-hydroxy-N,N-bis(2-hydroxyethyl)acetamide",C(CO)N(CCO)C(=O)CO,679.73,6,"[1, 6, 7, 8]",4,True,CHON,amide
4825,"(E)-N,N,N',N'-tetramethylprop-1-ene-1,3-diamine",CN(C)C/C=C/N(C)C,332.55,7,"[1, 6, 7]",3,True,CHN,alkene
4826,"2,5-dihydroxybenzaldehyde",C1=CC(=C(C=C1O)C=O)O,333.15,7,"[1, 6, 8]",3,True,CHO,aldehyde
4827,ethyl 3-methyl-2-oxobutanoate,CCOC(=O)C(=O)C(C)C,335.15,7,"[1, 6, 8]",3,True,CHO,ester
4828,"3,3-dimethylpenta-1,4-diyne",CC(C)(C#C)C#C,336.77,7,"[1, 6]",2,True,CH,alkyne
4829,"1,3,3-trimethoxybutane",CC(CCOC)(OC)OC,337.15,7,"[1, 6, 8]",3,True,CHO,ester
4830,"3,4-dimethylcyclopent-2-en-1-one",CC1CC(=O)C=C1C,340.65,7,"[1, 6, 8]",3,True,CHO,alkene
4831,"5-pyridin-4-yl-3H-1,3,4-oxadiazol-2-one",C1=CN=CC=C1C2=NNC(=O)O2,340.65,7,"[1, 6, 7, 8]",4,True,CHON,aromatic
4832,"1,2-diethynylcyclopropane",C#CC1CC1C#C,342.07,7,"[1, 6]",2,True,CH,alkyne
4833,1-(diethylamino)propan-2-one,CCN(CC)CC(=O)C,342.75,7,"[1, 6, 7, 8]",4,True,CHON,ketone
4834,3-methylhex-5-en-3-ol,CCC(C)(CC=C)O,343.15,7,"[1, 6, 8]",3,True,CHO,alkene
4835,"(3E,5E)-hepta-3,5-dien-2-one",C/C=C/C=C/C(=O)C,347.65,7,"[1, 6, 8]",3,True,CHO,alkene
4836,"3,3-dimethylpenta-1,4-diene",CC(C)(C=C)C=C,349.89,7,"[1, 6]",2,True,CH,alkene
4837,"3-ethenylpenta-1,4-diene",C=CC(C=C)C=C,350.15,7,"[1, 6]",2,True,CH,alkene
4838,1-(furan-2-yl)propan-1-one,CCC(=O)C1=CC=CO1,352.15,7,"[1, 6, 8]",3,True,CHO,aromatic
4839,N-methyl-N-prop-2-ynylprop-2-yn-1-amine,CN(CC#C)CC#C,352.44,7,"[1, 6, 7]",3,True,CHN,alkyne