,Name,SMILES,Tb,C Atom,Atom,Count Unique Atom,Pass Screen,Atom2,Func. Group
5517,"3,4-dimethylcyclopentane-1,2-dione",CC1CC(=O)C(=O)C1C,506.01,7,"[1, 6, 8]",3,True,CHO,ketone
5518,"3,5-dimethylcyclopentane-1,2-dione",CC1CC(C(=O)C1=O)C,506.01,7,"[1, 6, 8]",3,True,CHO,ketone
5519,"(2E)-hepta-2,6-dienoic acid",C=CCC/C=C/C(=O)O,506.11,7,"[1, 6, 8]",3,True,CHO,alkene
5520,"3,3-diethoxypropanenitrile",CCOC(CC#N)OCC,506.24,7,"[1, 6, 7, 8]",4,True,CHON,ester
5521,1-hydroxybutan-2-yl prop-2-enoate,CCC(CO)OC(=O)C=C,506.4,7,"[1, 6, 8]",3,True,CHO,ester
5522,3-hydroxypropyl 2-methylprop-2-enoate,CC(=C)C(=O)OCCCO,506.72,7,"[1, 6, 8]",3,True,CHO,ester
5523,4-hydroxybutyl prop-2-enoate,C=CC(=O)OCCCCO,506.84,7,"[1, 6, 8]",3,True,CHO,ester
5524,ethyl 2-hydroxy-2-methylbutanoate,CCC(C)(C(=O)OCC)O,506.93,7,"[1, 6, 8]",3,True,CHO,ester
5525,"2-hydroxyethyl 2,2-dimethylpropanoate",CC(C)(C)C(=O)OCCO,506.93,7,"[1, 6, 8]",3,True,CHO,ester
5526,"4,4-dimethyl-5-oxopentanenitrile",CC(C)(CCC#N)C=O,507.27,7,"[1, 6, 7, 8]",4,True,CHON,aldehyde
5527,"2,4,8,10-tetraoxaspiro[5.5]undecane",C1C2(COCO1)COCOC2,507.3,7,"[1, 6, 8]",3,True,CHO,ester
5528,"1,5,7,11-tetraoxaspiro[5.5]undecane",C1COC2(OC1)OCCCO2,507.3,7,"[1, 6, 8]",3,True,CHO,ester
5529,"1,3-bis(prop-2-enyl)urea",C=CCNC(=O)NCC=C,507.33,7,"[1, 6, 7, 8]",4,True,CHON,alkene
5530,2-ethyloxolane-2-carboxylic acid,CCC1(CCCO1)C(=O)O,507.65,7,"[1, 6, 8]",3,True,CHO,carboxylic_acid
5531,"4,4-dimethyloxan-2-one",CC1(CCOC(=O)C1)C,507.65,7,"[1, 6, 8]",3,True,CHO,ester
5532,4-(oxiran-2-ylmethoxy)butan-1-ol,C1C(O1)COCCCCO,508.05,7,"[1, 6, 8]",3,True,CHO,ester
5533,ethyl 2-hydroxy-3-methylbutanoate,CCOC(=O)C(C(C)C)O,509.28,7,"[1, 6, 8]",3,True,CHO,ester
5534,butan-2-yl 2-hydroxypropanoate,CCC(C)OC(=O)C(C)O,509.28,7,"[1, 6, 8]",3,True,CHO,ester
5535,methyl 2-hydroxy-4-methylpentanoate,CC(C)CC(C(=O)OC)O,509.28,7,"[1, 6, 8]",3,True,CHO,ester
5536,methyl 2-hydroxy-3-methylpentanoate,CCC(C)C(C(=O)OC)O,509.28,7,"[1, 6, 8]",3,True,CHO,ester
5537,(E)-4-methylhex-3-enoic acid,CC/C(=C/CC(=O)O)/C,509.31,7,"[1, 6, 8]",3,True,CHO,alkene
5538,hept-4-enoic acid,CCC=CCCC(=O)O,509.43,7,"[1, 6, 8]",3,True,CHO,alkene
5539,methyl 3-hydroxyhexanoate,CCCC(CC(=O)OC)O,509.72,7,"[1, 6, 8]",3,True,CHO,ester
5540,2-hydroxypropyl butanoate,CCCC(=O)OCC(C)O,509.72,7,"[1, 6, 8]",3,True,CHO,ester
5541,ethyl 3-hydroxypentanoate,CCC(CC(=O)OCC)O,509.72,7,"[1, 6, 8]",3,True,CHO,ester
5542,"2-ethylcyclopentane-1,3-dione",CCC1C(=O)CCC1=O,510.68,7,"[1, 6, 8]",3,True,CHO,ketone
5543,1-morpholin-4-ylpropan-2-ol,CC(CN1CCOCC1)O,510.84,7,"[1, 6, 7, 8]",4,True,CHON,ester
5544,"2,2-dimethylcyclopentane-1,3-dione",CC1(C(=O)CCC1=O)C,510.92,7,"[1, 6, 8]",3,True,CHO,ketone
5545,6-ethoxypyridin-2-amine,CCOC1=CC=CC(=N1)N,511.15,7,"[1, 6, 7, 8]",4,True,CHON,ester
5546,2-pyridin-2-yloxyethanamine,C1=CC=NC(=C1)OCCN,511.15,7,"[1, 6, 7, 8]",4,True,CHON,ester
5547,3-(butylamino)propanenitrile,CCCCNCCC#N,512.01,7,"[1, 6, 7]",3,True,CHN,amine
5548,"bicyclo[2.2.1]hept-5-ene-2,3-dione",C1C2C=CC1C(=O)C2=O,512.31,7,"[1, 6, 8]",3,True,CHO,alkene
5549,"bicyclo[4.1.0]hept-3-ene-2,5-dione",C1C2C1C(=O)C=CC2=O,512.31,7,"[1, 6, 8]",3,True,CHO,alkene
5550,2-(2-methylpropoxy)ethyl carbamate,CC(C)COCCOC(=O)N,512.49,7,"[1, 6, 7, 8]",4,True,CHON,ester
5551,ethyl-[(E)-pent-1-enyl]diazene,CCC/C=C/N=NCC,513.12,7,"[1, 6, 7]",3,True,CHN,alkene
5552,"1,3,6,9-tetraoxacycloundecane",C1COCCOCOCCO1,513.13,7,"[1, 6, 8]",3,True,CHO,ester
5553,"bicyclo[2.2.1]heptane-2,3-dione",C1CC2CC1C(=O)C2=O,513.15,7,"[1, 6, 8]",3,True,CHO,ketone
5554,"bicyclo[2.2.1]heptane-2,5-dione",C1C2CC(=O)C1CC2=O,513.15,7,"[1, 6, 8]",3,True,CHO,ketone
5555,"bicyclo[4.1.0]heptane-2,5-dione",C1CC(=O)C2CC2C1=O,513.15,7,"[1, 6, 8]",3,True,CHO,ketone
5556,2-methyl-5-propyl-4H-pyrazol-3-one,CCCC1=NN(C(=O)C1)C,513.54,7,"[1, 6, 7, 8]",4,True,CHON,amide
5557,"3,4,6,7,8,9-hexahydro-2H-pyrimido[1,2-a]pyrimidine",C1CNC2=NCCCN2C1,514.22,7,"[1, 6, 7]",3,True,CHN,amine
5558,hept-2-ynoic acid,CCCCC#CC(=O)O,514.27,7,"[1, 6, 8]",3,True,CHO,alkyne
5559,"2-methylcyclohexane-1,3-dione",CC1C(=O)CCCC1=O,514.95,7,"[1, 6, 8]",3,True,CHO,ketone
5560,"4-methylcyclohexane-1,2-dione",CC1CCC(=O)C(=O)C1,514.95,7,"[1, 6, 8]",3,True,CHO,ketone
5561,"5-methylcyclohexane-1,3-dione",CC1CC(=O)CC(=O)C1,514.95,7,"[1, 6, 8]",3,True,CHO,ketone
5562,"4-methylcyclohexane-1,3-diamine",CC1CCC(CC1N)N,515.03,7,"[1, 6, 7]",3,True,CHN,amine
5563,methoxy(methoxymethoxymethoxymethoxymethoxy)methane,COCOCOCOCOCOC,515.45,7,"[1, 6, 8]",3,True,CHO,ester
5564,propan-2-yl 2-cyanoprop-2-enoate,CC(C)OC(=O)C(=C)C#N,516.18,7,"[1, 6, 7, 8]",4,True,CHON,ester
5565,propyl 2-cyanoprop-2-enoate,CCCOC(=O)C(=C)C#N,516.62,7,"[1, 6, 7, 8]",4,True,CHON,ester
5566,tert-butyl 2-cyanoacetate,CC(C)(C)OC(=O)CC#N,516.83,7,"[1, 6, 7, 8]",4,True,CHON,ester
5567,"methyl 1-nitroso-3,6-dihydro-2H-pyridine-5-carboxylate",COC(=O)C1=CCCN(C1)N=O,517.91,7,"[1, 6, 7, 8]",4,True,CHON,ester
5568,3-amino-5-methylphenol,CC1=CC(=CC(=C1)O)N,518.15,7,"[1, 6, 7, 8]",4,True,CHON,alcohol
5569,butan-2-yl 2-cyanoacetate,CCC(C)OC(=O)CC#N,519.62,7,"[1, 6, 7, 8]",4,True,CHON,ester
5570,"2-N-methylbenzene-1,2-diamine",CNC1=CC=CC=C1N,519.65,7,"[1, 6, 7]",3,True,CHN,aromatic
5571,2-cyclopent-3-en-1-ylacetic acid,C1C=CCC1CC(=O)O,519.71,7,"[1, 6, 8]",3,True,CHO,alkene
5572,3-morpholin-4-ylpropanenitrile,C1COCCN1CCC#N,521.18,7,"[1, 6, 7, 8]",4,True,CHON,ester
5573,"5-amino-2,2-dimethylpentan-1-ol",CC(C)(CCCN)CO,521.24,7,"[1, 6, 7, 8]",4,True,CHON,alcohol
5574,"heptane-2,4,6-trione",CC(=O)CC(=O)CC(=O)C,521.37,7,"[1, 6, 8]",3,True,CHO,ketone
5575,ethyl 4-nitrosopiperazine-1-carboxylate,CCOC(=O)N1CCN(CC1)N=O,521.94,7,"[1, 6, 7, 8]",4,True,CHON,ester
5576,"1-propan-2-ylpyrrole-2,5-dione",CC(C)N1C(=O)C=CC1=O,522.24,7,"[1, 6, 7, 8]",4,True,CHON,amide
5577,"1-propylpyrrole-2,5-dione",CCCN1C(=O)C=CC1=O,522.68,7,"[1, 6, 7, 8]",4,True,CHON,amide
5578,"2-methylcyclohexa-2,5-diene-1,4-dione",CC1=CC(=O)C=CC1=O,522.92,7,"[1, 6, 8]",3,True,CHO,alkene
5579,"4-methylcyclohexa-3,5-diene-1,2-dione",CC1=CC(=O)C(=O)C=C1,522.92,7,"[1, 6, 8]",3,True,CHO,alkene
5580,2-(methylcarbamoyloxy)ethyl prop-2-enoate,CNC(=O)OCCOC(=O)C=C,523.05,7,"[1, 6, 7, 8]",4,True,CHON,ester
5581,4-amino-2-methylhexan-3-ol,CCC(C(C(C)C)O)N,523.15,7,"[1, 6, 7, 8]",4,True,CHON,alcohol
5582,N-(4-hydroxybutyl)-N-prop-2-enylnitrous amide,C=CCN(CCCCO)N=O,524.46,7,"[1, 6, 7, 8]",4,True,CHON,alkene
5583,N-but-3-enyl-N-(3-hydroxypropyl)nitrous amide,C=CCCN(CCCO)N=O,524.46,7,"[1, 6, 7, 8]",4,True,CHON,alkene
5584,"3-(2-hydroxypropyl)-5-methyl-1,3-oxazolidin-2-one",CC1CN(C(=O)O1)CC(C)O,524.63,7,"[1, 6, 7, 8]",4,True,CHON,ester
5585,"4-[[(E)-prop-1-enoxy]methyl]-1,3-dioxolan-2-one",C/C=C/OCC1COC(=O)O1,524.65,7,"[1, 6, 8]",3,True,CHO,ester
5586,ethyl 3-ethoxy-3-iminopropanoate,CCOC(=N)CC(=O)OCC,524.74,7,"[1, 6, 7, 8]",4,True,CHON,ester
5587,methyl 2-acetyl-3-oxobutanoate,CC(=O)C(C(=O)C)C(=O)OC,525.28,7,"[1, 6, 8]",3,True,CHO,ester
5588,"(5-ethyl-1,3-dioxan-5-yl)methanol",CCC1(COCOC1)CO,525.63,7,"[1, 6, 8]",3,True,CHO,ester
5589,2-ethyl-4-hydroxy-3-methyl-2H-furan-5-one,CCC1C(=C(C(=O)O1)O)C,526.02,7,"[1, 6, 8]",3,True,CHO,ester
5590,heptanamide,CCCCCCC(=O)N,527.15,7,"[1, 6, 7, 8]",4,True,CHON,amide
5591,"1-ethyl-3-methylpyrrole-2,5-dione",CCN1C(=O)C=C(C1=O)C,527.66,7,"[1, 6, 7, 8]",4,True,CHON,amide
5592,N-(4-hydroxybutyl)-N-propylnitrous amide,CCCN(CCCCO)N=O,527.78,7,"[1, 6, 7, 8]",4,True,CHON,alcohol
5593,N-butyl-N-(3-hydroxypropyl)nitrous amide,CCCCN(CCCO)N=O,527.78,7,"[1, 6, 7, 8]",4,True,CHON,alcohol
5594,"4,6-dimethylpyridin-3-amine",CC1=CC(=NC=C1N)C,529.15,7,"[1, 6, 7]",3,True,CHN,aromatic
5595,2-(2-hydroxyethoxy)ethyl prop-2-enoate,C=CC(=O)OCCOCCO,529.26,7,"[1, 6, 8]",3,True,CHO,ester
5596,dimethyl 3-oxopentanedioate,COC(=O)CC(=O)CC(=O)OC,530.07,7,"[1, 6, 8]",3,True,CHO,ester
5597,dimethyl 2-oxopentanedioate,COC(=O)CCC(=O)C(=O)OC,530.07,7,"[1, 6, 8]",3,True,CHO,ester
5598,"2-amino-2,4-dimethylpentanenitrile",CC(C)CC(C)(C#N)N,530.7,7,"[1, 6, 7]",3,True,CHN,amine
5599,"1-nitroso-1,3-bis(prop-2-enyl)urea",C=CCNC(=O)N(CC=C)N=O,533.0,7,"[1, 6, 7, 8]",4,True,CHON,alkene
5600,"1-butyl-3,3-dimethyl-1-nitrosourea",CCCCN(C(=O)N(C)C)N=O,534.15,7,"[1, 6, 7, 8]",4,True,CHON,amide
5601,7-aminoheptanenitrile,C(CCCN)CCC#N,534.37,7,"[1, 6, 7]",3,True,CHN,amine
5602,3-(oxolan-2-yl)propanoic acid,C1CC(OC1)CCC(=O)O,536.15,7,"[1, 6, 8]",3,True,CHO,carboxylic_acid
5603,tert-butyl N-(2-aminoethyl)carbamate,CC(C)(C)OC(=O)NCCN,537.45,7,"[1, 6, 7, 8]",4,True,CHON,ester
5604,"2,4-dimethylpentane-2,4-diol",CC(C)(CC(C)(C)O)O,537.66,7,"[1, 6, 8]",3,True,CHO,alcohol
5605,1-(5-hydroxy-4-methyloxolan-3-yl)ethanone,CC1C(COC1O)C(=O)C,538.7,7,"[1, 6, 8]",3,True,CHO,ester
5606,"2-hydroxy-5,5-dimethylcyclopent-2-en-1-one",CC1(CC=C(C1=O)O)C,539.42,7,"[1, 6, 8]",3,True,CHO,alkene
5607,"3,5-bis(methoxymethyl)-1,3,5-oxadiazinan-4-one",COCN1COCN(C1=O)COC,539.93,7,"[1, 6, 7, 8]",4,True,CHON,ester
5608,"2-methyl-2-propan-2-ylpropane-1,3-diol",CC(C)C(C)(CO)CO,540.45,7,"[1, 6, 8]",3,True,CHO,alcohol
5609,"2-methylhexane-2,5-diol",CC(CCC(C)(C)O)O,540.45,7,"[1, 6, 8]",3,True,CHO,alcohol
5610,"3,4-dimethylpentane-1,4-diol",CC(CCO)C(C)(C)O,540.45,7,"[1, 6, 8]",3,True,CHO,alcohol
5611,methyl 2-methoxy-2-(prop-2-enoylamino)acetate,COC(C(=O)OC)NC(=O)C=C,540.68,7,"[1, 6, 7, 8]",4,True,CHON,ester
5612,"5-methylhexane-1,5-diol",CC(C)(CCCCO)O,540.89,7,"[1, 6, 8]",3,True,CHO,alcohol
5613,"2,2-dimethylpentane-1,5-diol",CC(C)(CCCO)CO,540.89,7,"[1, 6, 8]",3,True,CHO,alcohol
5614,"3,3-dimethylpentane-1,5-diol",CC(C)(CCO)CCO,540.89,7,"[1, 6, 8]",3,True,CHO,alcohol
5615,"1-methyl-3,6-dihydro-2H-pyridine-5-carboxylic acid",CN1CCC=C(C1)C(=O)O,541.8,7,"[1, 6, 7, 8]",4,True,CHON,carboxylic_acid
5616,1-methoxypropan-2-yl 2-cyanoacetate,CC(COC)OC(=O)CC#N,542.04,7,"[1, 6, 7, 8]",4,True,CHON,ester
5617,[acetyl(ethoxycarbonyl)amino] acetate,CCOC(=O)N(C(=O)C)OC(=O)C,542.51,7,"[1, 6, 7, 8]",4,True,CHON,ester
5618,"heptane-2,6-diol",CC(CCCC(C)O)O,543.24,7,"[1, 6, 8]",3,True,CHO,alcohol
5619,"heptane-2,4-diol",CCCC(CC(C)O)O,543.24,7,"[1, 6, 8]",3,True,CHO,alcohol
5620,"heptane-2,3-diol",CCCCC(C(C)O)O,543.24,7,"[1, 6, 8]",3,True,CHO,alcohol
5621,"2-ethylpentane-1,3-diol",CCC(CO)C(CC)O,543.24,7,"[1, 6, 8]",3,True,CHO,alcohol
5622,"2-butan-2-ylpropane-1,3-diol",CCC(C)C(CO)CO,543.24,7,"[1, 6, 8]",3,True,CHO,alcohol
5623,N-(2-oxobutyl)-N-(2-oxopropyl)nitrous amide,CCC(=O)CN(CC(=O)C)N=O,543.34,7,"[1, 6, 7, 8]",4,True,CHON,ketone
5624,"heptane-1,3-diol",CCCCC(CCO)O,543.68,7,"[1, 6, 8]",3,True,CHO,alcohol
5625,"heptane-1,5-diol",CCC(CCCCO)O,543.68,7,"[1, 6, 8]",3,True,CHO,alcohol
5626,"2-propylbutane-1,4-diol",CCCC(CCO)CO,543.68,7,"[1, 6, 8]",3,True,CHO,alcohol
5627,3-oxo-3-pyrrolidin-1-ylpropanenitrile,C1CCN(C1)C(=O)CC#N,543.83,7,"[1, 6, 7, 8]",4,True,CHON,amide
5628,"2-hydroxy-3,4-dimethylcyclopent-2-en-1-one",CC1CC(=O)C(=C1C)O,544.16,7,"[1, 6, 8]",3,True,CHO,alkene
5629,"3,3,5,5-tetramethylpyrazol-4-one",CC1(C(=O)C(N=N1)(C)C)C,545.23,7,"[1, 6, 7, 8]",4,True,CHON,ketone
5630,"2-methoxycyclohexa-2,5-diene-1,4-dione",COC1=CC(=O)C=CC1=O,545.34,7,"[1, 6, 8]",3,True,CHO,ester
5631,diethyl 2-aminopropanedioate,CCOC(=O)C(C(=O)OCC)N,548.29,7,"[1, 6, 7, 8]",4,True,CHON,ester
5632,2-ethyl-3-hydroxycyclopent-2-en-1-one,CCC1=C(CCC1=O)O,548.83,7,"[1, 6, 8]",3,True,CHO,alkene
5633,3-ethyl-2-hydroxycyclopent-2-en-1-one,CCC1=C(C(=O)CC1)O,548.83,7,"[1, 6, 8]",3,True,CHO,alkene
5634,2-(hydroxymethylidene)cyclohexan-1-one,C1CCC(=O)C(=CO)C1,550.62,7,"[1, 6, 8]",3,True,CHO,alkene
5635,"3-tert-butyl-1,4-dihydropyrazol-5-one",CC(C)(C)C1=NNC(=O)C1,550.69,7,"[1, 6, 7, 8]",4,True,CHON,amide
5636,"bicyclo[2.2.1]hept-5-ene-2,3-diol",C1C2C=CC1C(C2O)O,551.69,7,"[1, 6, 8]",3,True,CHO,alkene
5637,2-[ethoxycarbonyl(nitroso)amino]ethyl acetate,CCOC(=O)N(CCOC(=O)C)N=O,552.04,7,"[1, 6, 7, 8]",4,True,CHON,ester
5638,2-[acetyloxymethyl(nitroso)amino]ethyl acetate,CC(=O)OCCN(COC(=O)C)N=O,552.04,7,"[1, 6, 7, 8]",4,True,CHON,ester
5639,methyl 3-[acetyloxymethyl(nitroso)amino]propanoate,CC(=O)OCN(CCC(=O)OC)N=O,552.04,7,"[1, 6, 7, 8]",4,True,CHON,ester
5640,"bicyclo[2.2.1]heptane-2,5-diol",C1C2CC(C1CC2O)O,552.53,7,"[1, 6, 8]",3,True,CHO,alcohol
5641,7-hydroxyheptanenitrile,C(CCCO)CCC#N,554.02,7,"[1, 6, 7, 8]",4,True,CHON,alcohol
5642,ethyl N-[(ethoxycarbonylamino)methyl]carbamate,CCOC(=O)NCNC(=O)OCC,554.15,7,"[1, 6, 7, 8]",4,True,CHON,ester
5643,1-aminocyclohexane-1-carbonitrile,C1CCC(CC1)(C#N)N,554.16,7,"[1, 6, 7]",3,True,CHN,amine
5644,"N,1-dimethyl-5-oxopyrrolidine-3-carboxamide",CNC(=O)C1CC(=O)N(C1)C,555.07,7,"[1, 6, 7, 8]",4,True,CHON,amide
5645,"3,3-diethylazetidine-2,4-dione",CCC1(C(=O)NC1=O)CC,555.2,7,"[1, 6, 7, 8]",4,True,CHON,amide
5646,1-[2-hydroxypropyl(methyl)amino]propan-2-ol,CC(CN(C)CC(C)O)O,555.68,7,"[1, 6, 7, 8]",4,True,CHON,alcohol
5647,"2,2-dimethyl-4-oxopentanoic acid",CC(=O)CC(C)(C)C(=O)O,555.91,7,"[1, 6, 8]",3,True,CHO,carboxylic_acid
5648,N-hydroxyheptanamide,CCCCCCC(=O)NO,555.98,7,"[1, 6, 7, 8]",4,True,CHON,amide
5649,2-[2-hydroxyethyl(propan-2-yl)amino]ethanol,CC(C)N(CCO)CCO,556.12,7,"[1, 6, 7, 8]",4,True,CHON,alcohol
5650,1-(hydroxymethyl)azepan-2-one,C1CCC(=O)N(CC1)CO,556.42,7,"[1, 6, 7, 8]",4,True,CHON,amide
5651,2-[2-hydroxyethyl(propyl)amino]ethanol,CCCN(CCO)CCO,556.56,7,"[1, 6, 7, 8]",4,True,CHON,alcohol
5652,tert-butyl N-(2-hydroxyethyl)carbamate,CC(C)(C)OC(=O)NCCO,557.1,7,"[1, 6, 7, 8]",4,True,CHON,ester
5653,4-methyl-5-oxohexanoic acid,CC(CCC(=O)O)C(=O)C,558.7,7,"[1, 6, 8]",3,True,CHO,carboxylic_acid
5654,"1,3-bis(2-methoxyethyl)urea",COCCNC(=O)NCCOC,558.81,7,"[1, 6, 7, 8]",4,True,CHON,ester
5655,"N'-(2-imidazolidin-1-ylethyl)ethane-1,2-diamine",C1CN(CN1)CCNCCN,559.13,7,"[1, 6, 7]",3,True,CHN,amine
5656,6-oxoheptanoic acid,CC(=O)CCCCC(=O)O,559.14,7,"[1, 6, 8]",3,True,CHO,carboxylic_acid
5657,3-oxoheptanoic acid,CCCCC(=O)CC(=O)O,559.14,7,"[1, 6, 8]",3,True,CHO,carboxylic_acid
5658,"(E)-N'-(3-aminopropyl)but-2-ene-1,4-diamine",C(CN)CNC/C=C/CN,559.15,7,"[1, 6, 7]",3,True,CHN,alkene
5659,"1-methylcyclohexane-1,2-diol",CC1(CCCCC1O)O,559.24,7,"[1, 6, 8]",3,True,CHO,alcohol
5660,3-[(2-methylpropan-2-yl)oxy]-3-oxopropanoic acid,CC(C)(C)OC(=O)CC(=O)O,560.26,7,"[1, 6, 8]",3,True,CHO,carboxylic_acid
5661,N-[(prop-2-enoylamino)methyl]prop-2-enamide,C=CC(=O)NCNC(=O)C=C,561.2,7,"[1, 6, 7, 8]",4,True,CHON,alkene
5662,1-hexyl-1-nitrosourea,CCCCCCN(C(=O)N)N=O,562.0,7,"[1, 6, 7, 8]",4,True,CHON,amide
5663,"3-[(2-methylpropan-2-yl)oxy]propane-1,2-diol",CC(C)(C)OCC(CO)O,562.87,7,"[1, 6, 8]",3,True,CHO,ester
5664,"1,1,3-triethyl-3-nitrosourea",CCN(CC)C(=O)N(CC)N=O,563.15,7,"[1, 6, 7, 8]",4,True,CHON,amide
5665,"cycloheptane-1,2-diol",C1CCC(C(CC1)O)O,563.27,7,"[1, 6, 8]",3,True,CHO,alcohol
5666,"N'-[2-(4,5-dihydroimidazol-1-yl)ethyl]ethane-1,2-diamine",C1CN(C=N1)CCNCCN,563.44,7,"[1, 6, 7]",3,True,CHN,amine
5667,6-methoxy-6-oxohexanoic acid,COC(=O)CCCCC(=O)O,563.49,7,"[1, 6, 8]",3,True,CHO,carboxylic_acid
5668,4-oxo-4-propoxybutanoic acid,CCCOC(=O)CCC(=O)O,563.49,7,"[1, 6, 8]",3,True,CHO,carboxylic_acid
5669,"4,4-dimethylpiperidine-2,6-dione",CC1(CC(=O)NC(=O)C1)C,563.74,7,"[1, 6, 7, 8]",4,True,CHON,amide
5670,1-(hydroxymethyl)cyclohexan-1-ol,C1CCC(CC1)(CO)O,563.91,7,"[1, 6, 8]",3,True,CHO,alcohol
5671,(Z)-4-oxo-4-prop-2-enoxybut-2-enoic acid,C=CCOC(=O)/C=C\C(=O)O,564.33,7,"[1, 6, 8]",3,True,CHO,carboxylic_acid
5672,"2,2-dimethyl-5-oxooxolane-3-carboxylic acid",CC1(C(CC(=O)O1)C(=O)O)C,565.8,7,"[1, 6, 8]",3,True,CHO,carboxylic_acid
5673,"3-azabicyclo[3.2.1]octane-2,4-dione",C1CC2CC1C(=O)NC2=O,565.97,7,"[1, 6, 7, 8]",4,True,CHON,amide
5674,2-ethyl-4-(hydroxymethyl)furan-3-one,CCC1C(=O)C(=CO1)CO,566.13,7,"[1, 6, 8]",3,True,CHO,ester
5675,(Z)-4-oxo-4-propan-2-yloxybut-2-enoic acid,CC(C)OC(=O)/C=C\C(=O)O,567.21,7,"[1, 6, 8]",3,True,CHO,carboxylic_acid
5676,N-(2-acetamidopropyl)acetamide,CC(CNC(=O)C)NC(=O)C,567.4,7,"[1, 6, 7, 8]",4,True,CHON,amide
5677,"N'-[2-[2-(methylamino)ethylamino]ethyl]ethane-1,2-diamine",CNCCNCCNCCN,567.43,7,"[1, 6, 7]",3,True,CHN,amine
5678,(Z)-4-oxo-4-propoxybut-2-enoic acid,CCCOC(=O)/C=C\C(=O)O,567.65,7,"[1, 6, 8]",3,True,CHO,carboxylic_acid
5679,"4-hydroxy-4,6-dihydrofuro[3,2-c]pyran-2-one",C1C=C2C(=CC(=O)O2)C(O1)O,567.81,7,"[1, 6, 8]",3,True,CHO,ester
5680,dimethyl 3-hydroxypentanedioate,COC(=O)CC(CC(=O)OC)O,567.94,7,"[1, 6, 8]",3,True,CHO,ester
5681,"(E)-3-(3,4-dihydro-2H-pyrrol-5-yl)prop-2-enamide",C1CC(=NC1)/C=C/C(=O)N,568.11,7,"[1, 6, 7, 8]",4,True,CHON,alkene
5682,2-[2-(3-aminopropoxy)ethoxy]ethanol,C(CN)COCCOCCO,569.31,7,"[1, 6, 7, 8]",4,True,CHON,ester
5683,"6-azaspiro[3.4]octane-5,7-dione",C1CC2(C1)CC(=O)NC2=O,570.88,7,"[1, 6, 7, 8]",4,True,CHON,amide
5684,5-ethyl-4-hydroxy-2-methylfuran-3-one,CCC1=C(C(=O)C(O1)C)O,571.11,7,"[1, 6, 8]",3,True,CHO,ester
5685,2-ethyl-4-hydroxy-5-methylfuran-3-one,CCC1C(=O)C(=C(O1)C)O,571.11,7,"[1, 6, 8]",3,True,CHO,ester
5686,ethyl 2-cyano-3-oxobutanoate,CCOC(=O)C(C#N)C(=O)C,573.49,7,"[1, 6, 7, 8]",4,True,CHON,ester
5687,di(imidazol-1-yl)methanone,C1=CN(C=N1)C(=O)N2C=CN=C2,573.91,7,"[1, 6, 7, 8]",4,True,CHON,aromatic
5688,"2-amino-2,4-dimethylpentanoic acid",CC(C)CC(C)(C(=O)O)N,574.13,7,"[1, 6, 7, 8]",4,True,CHON,carboxylic_acid
5689,"2-amino-4,4-dimethylpentanoic acid",CC(C)(C)CC(C(=O)O)N,574.13,7,"[1, 6, 7, 8]",4,True,CHON,carboxylic_acid
5690,3-morpholin-4-yl-3-oxopropanenitrile,C1COCCN1C(=O)CC#N,575.05,7,"[1, 6, 7, 8]",4,True,CHON,ester
5691,3-[2-cyanoethyl(methyl)amino]propanenitrile,CN(CCC#N)CCC#N,576.36,7,"[1, 6, 7]",3,True,CHN,amine
5692,2-amino-5-methylhexanoic acid,CC(C)CCC(C(=O)O)N,576.92,7,"[1, 6, 7, 8]",4,True,CHON,carboxylic_acid
5693,2-amino-4-methylhexanoic acid,CCC(C)CC(C(=O)O)N,576.92,7,"[1, 6, 7, 8]",4,True,CHON,carboxylic_acid
5694,3-amino-5-methylhexanoic acid,CC(C)CC(CC(=O)O)N,576.92,7,"[1, 6, 7, 8]",4,True,CHON,carboxylic_acid
5695,2-amino-3-ethylpentanoic acid,CCC(CC)C(C(=O)O)N,576.92,7,"[1, 6, 7, 8]",4,True,CHON,carboxylic_acid
5696,2-amino-3-methylhexanoic acid,CCCC(C)C(C(=O)O)N,576.92,7,"[1, 6, 7, 8]",4,True,CHON,carboxylic_acid
5697,2-aminoheptanoic acid,CCCCCC(C(=O)O)N,577.36,7,"[1, 6, 7, 8]",4,True,CHON,carboxylic_acid
5698,7-aminoheptanoic acid,C(CCCN)CCC(=O)O,577.8,7,"[1, 6, 7, 8]",4,True,CHON,carboxylic_acid
5699,"(2,5-dioxopyrrolidin-1-yl) prop-2-enoate",C=CC(=O)ON1C(=O)CCC1=O,578.42,7,"[1, 6, 7, 8]",4,True,CHON,alkene
5700,2-[2-(2-hydroxyethoxy)ethyl-methylamino]ethanol,CN(CCO)CCOCCO,578.98,7,"[1, 6, 7, 8]",4,True,CHON,ester
5701,2-[(E)-hydrazinylidenemethyl]phenol,C1=CC=C(C(=C1)/C=N/N)O,579.46,7,"[1, 6, 7, 8]",4,True,CHON,aromatic
5702,4-[nitroso(propyl)amino]butanoic acid,CCCN(CCCC(=O)O)N=O,581.11,7,"[1, 6, 7, 8]",4,True,CHON,alcohol
5703,3-[butyl(nitroso)amino]propanoic acid,CCCCN(CCC(=O)O)N=O,581.11,7,"[1, 6, 7, 8]",4,True,CHON,alcohol
5704,1-cyclohexyl-1-nitrosourea,C1CCC(CC1)N(C(=O)N)N=O,581.55,7,"[1, 6, 7, 8]",4,True,CHON,amide
5705,2-propan-2-yloxyethyl N-(hydroxymethyl)carbamate,CC(C)OCCOC(=O)NCO,582.31,7,"[1, 6, 7, 8]",4,True,CHON,ester
5706,"3-tert-butylperoxypropane-1,2-diol",CC(C)(C)OOCC(CO)O,585.29,7,"[1, 6, 8]",3,True,CHO,alcohol
5707,"cyclohepta-3,6-diene-1,2,5-trione",C1=CC(=O)C(=O)C=CC1=O,590.03,7,"[1, 6, 8]",3,True,CHO,alkene
5708,"cyclohepta-4,6-diene-1,2,3-trione",C1=CC(=O)C(=O)C(=O)C=C1,590.03,7,"[1, 6, 8]",3,True,CHO,alkene
5709,2-(1-ethoxyethylidene)propanedinitrile,CCOC(=C(C#N)C#N)C,590.26,7,"[1, 6, 7, 8]",4,True,CHON,ester
5710,"3-[(dimethylcarbamoylamino)methyl]-1,1-dimethylurea",CN(C)C(=O)NCNC(=O)N(C)C,592.72,7,"[1, 6, 7, 8]",4,True,CHON,amide
5711,(E)-N-carbamoyl-2-ethylbut-2-enamide,CC/C(=C\C)/C(=O)NC(=O)N,594.24,7,"[1, 6, 7, 8]",4,True,CHON,alkene
5712,2-[(E)-3-methoxyprop-2-enylidene]propanedinitrile,CO/C=C/C=C(C#N)C#N,594.54,7,"[1, 6, 7, 8]",4,True,CHON,ester
5713,2-(tert-butyldiazenyl)propan-2-ol,CC(C)(C)N=NC(C)(C)O,594.68,7,"[1, 6, 7, 8]",4,True,CHON,alcohol
5714,ethyl N-[2-(methylamino)-2-methyliminoethyl]carbamate,CCOC(=O)NCC(=NC)NC,594.88,7,"[1, 6, 7, 8]",4,True,CHON,ester
5715,7-hydroxyheptanoic acid,C(CCCO)CCC(=O)O,597.45,7,"[1, 6, 8]",3,True,CHO,alcohol