,Name,SMILES,Tb,C Atom,Atom,Count Unique Atom,Pass Screen,Atom2,Func. Group
7204,"(1Z,4Z,7Z)-cyclonona-1,4,7-triene",C/1/C=C\C/C=C\C/C=C1,440.03,9,"[1, 6]",2,True,CH,alkene
7205,5-(1-ethoxyethoxy)pent-1-yne,CCOC(C)OCCCC#C,440.04,9,"[1, 6, 8]",3,True,CHO,ester
7206,"methyl 2,4-dimethyl-6-oxopyran-3-carboxylate",CC1=CC(=O)OC(=C1C(=O)OC)C,440.15,9,"[1, 6, 8]",3,True,CHO,ester
7207,"2,2-bis(prop-2-enoxy)propane",CC(C)(OCC=C)OCC=C,440.49,9,"[1, 6, 8]",3,True,CHO,ester
7208,bicyclo[3.3.1]non-1-ene,C1CC2CCC=C(C1)C2,440.62,9,"[1, 6]",2,True,CH,alkene
7209,bicyclo[4.2.1]non-1(8)-ene,C1CCC2=CCC(C1)C2,440.62,9,"[1, 6]",2,True,CH,alkene
7210,bicyclo[4.2.1]non-1-ene,C1CC=C2CCC(C1)C2,440.62,9,"[1, 6]",2,True,CH,alkene
7211,4-ethyl-1-azabicyclo[2.2.2]octane,CCC12CCN(CC1)CC2,440.62,9,"[1, 6, 7]",3,True,CHN,amine
7212,"1,1-diethoxy-3-methylbutane",CCOC(CC(C)C)OCC,440.65,9,"[1, 6, 8]",3,True,CHO,ester
7213,ethylidenecycloheptane,CC=C1CCCCCC1,440.65,9,"[1, 6]",2,True,CH,alkene
7214,"2,5-bis(ethenyl)oxane",C=CC1CCC(OC1)C=C,440.71,9,"[1, 6, 8]",3,True,CHO,ester
7215,"(1Z,4Z)-cyclonona-1,4-diene",C1C/C=C\C/C=C\CC1,440.87,9,"[1, 6]",2,True,CH,alkene
7216,"(1Z,5Z)-cyclonona-1,5-diene",C1C/C=C\CC/C=C\C1,440.87,9,"[1, 6]",2,True,CH,alkene
7217,propan-2-yl hexanoate,CCCCCC(=O)OC(C)C,441.15,9,"[1, 6, 8]",3,True,CHO,ester
7218,"1,4-diethyl-2-methylpiperazine",CCN1CCN(C(C1)C)CC,441.41,9,"[1, 6, 7]",3,True,CHN,amine
7219,1-(3-aminophenyl)propan-1-one,CCC(=O)C1=CC(=CC=C1)N,441.65,9,"[1, 6, 7, 8]",4,True,CHON,ketone
7220,cyclononene,C1CCCC=CCCC1,441.71,9,"[1, 6]",2,True,CH,alkene
7221,cyclononene,C1CCC/C=C/CCC1,441.71,9,"[1, 6]",2,True,CH,alkene
7222,1-(2-methylprop-1-enyl)piperidine,CC(=CN1CCCCC1)C,441.95,9,"[1, 6, 7]",3,True,CHN,alkene
7223,1-[(E)-but-2-enyl]piperidine,C/C=C/CN1CCCCC1,442.07,9,"[1, 6, 7]",3,True,CHN,alkene
7224,1-[(E)-but-1-enyl]piperidine,CC/C=C/N1CCCCC1,442.07,9,"[1, 6, 7]",3,True,CHN,alkene
7225,"2,2,4-trimethylhexan-3-ol",CCC(C)C(C(C)(C)C)O,442.15,9,"[1, 6, 8]",3,True,CHO,alcohol
7226,1-ethynyl-4-methylbenzene,CC1=CC=C(C=C1)C#C,442.2,9,"[1, 6]",2,True,CH,alkyne
7227,(1Z)-1-methylcyclooctene,C/C/1=C/CCCCCC1,442.42,9,"[1, 6]",2,True,CH,alkene
7228,(1E)-1-methylcyclooctene,C/C/1=C\CCCCCC1,442.42,9,"[1, 6]",2,True,CH,alkene
7229,1-methyl-4-propan-2-ylpiperidine,CC(C)C1CCN(CC1)C,442.65,9,"[1, 6, 7]",3,True,CHN,amine
7230,(4-formylphenyl) acetate,CC(=O)OC1=CC=C(C=C1)C=O,443.15,9,"[1, 6, 8]",3,True,CHO,ester
7231,"1,2,3-trimethylbenzene",CC1=C(C(=CC=C1)C)C,443.55,9,"[1, 6]",2,True,CH,aromatic
7232,"2,2-dimethoxy-4,4-dimethylpentane",CC(C)(C)CC(C)(OC)OC,443.9,9,"[1, 6, 8]",3,True,CHO,ester
7233,2-methyloctan-3-one,CCCCCC(=O)C(C)C,444.15,9,"[1, 6, 8]",3,True,CHO,ketone
7234,1-methoxyoctane,CCCCCCCCOC,444.15,9,"[1, 6, 8]",3,True,CHO,ester
7235,methyl 2-propylpentanoate,CCCC(CCC)C(=O)OC,444.15,9,"[1, 6, 8]",3,True,CHO,ester
7236,heptan-4-yl acetate,CCCC(CCC)OC(=O)C,444.15,9,"[1, 6, 8]",3,True,CHO,ester
7237,5-methoxybicyclo[2.2.2]oct-2-ene,COC1CC2CCC1C=C2,444.45,9,"[1, 6, 8]",3,True,CHO,ester
7238,"5,5-dimethyl-2-propyl-1,3-dioxane",CCCC1OCC(CO1)(C)C,444.65,9,"[1, 6, 8]",3,True,CHO,ester
7239,(3-methylphenyl) N-methylcarbamate,CC1=CC(=CC=C1)OC(=O)NC,444.65,9,"[1, 6, 7, 8]",4,True,CHON,ester
7240,"2,4,4-trimethylhexan-3-ol",CCC(C)(C)C(C(C)C)O,444.86543,9,"[1, 6, 8]",3,True,CHO,alcohol
7241,"N,N-dimethylheptan-1-amine",CCCCCCCN(C)C,445.15,9,"[1, 6, 7]",3,True,CHN,amine
7242,heptan-2-yl acetate,CCCCCC(C)OC(=O)C,445.15,9,"[1, 6, 8]",3,True,CHO,ester
7243,2-methoxybicyclo[2.2.2]octane,COC1CC2CCC1CC2,445.29,9,"[1, 6, 8]",3,True,CHO,ester
7244,"3,3,4,4-tetramethylpentan-2-one",CC(=O)C(C)(C)C(C)(C)C,445.89728,9,"[1, 6, 8]",3,True,CHO,ketone
7245,1-ethylazocane,CCN1CCCCCCC1,446.45,9,"[1, 6, 7]",3,True,CHN,amine
7246,1-ethenoxy-3-methylbenzene,CC1=CC(=CC=C1)OC=C,446.9,9,"[1, 6, 8]",3,True,CHO,ester
7247,1-methoxyethylcyclohexane,CC(C1CCCCC1)OC,447.05,9,"[1, 6, 8]",3,True,CHO,ester
7248,3-methyloctan-4-one,CCCCC(=O)C(C)CC,447.15,9,"[1, 6, 8]",3,True,CHO,ketone
7249,"3-ethyl-2,2-dimethylpentan-3-ol",CCC(CC)(C(C)(C)C)O,447.15,9,"[1, 6, 8]",3,True,CHO,alcohol
7250,"2,2-dimethylheptan-4-ol",CCCC(CC(C)(C)C)O,447.15,9,"[1, 6, 8]",3,True,CHO,alcohol
7251,"2,2,3,4-tetramethylpentan-3-ol",CC(C)C(C)(C(C)(C)C)O,447.35,9,"[1, 6, 8]",3,True,CHO,alcohol
7252,3-ethylheptan-4-one,CCCC(=O)C(CC)CC,448.15,9,"[1, 6, 8]",3,True,CHO,ketone
7253,5-methyloctan-4-one,CCCC(C)C(=O)CCC,448.15,9,"[1, 6, 8]",3,True,CHO,ketone
7254,"3,7-dimethyl-3,7-diazabicyclo[3.3.1]nonane",CN1CC2CC(C1)CN(C2)C,448.15,9,"[1, 6, 7]",3,True,CHN,amine
7255,"3-(diethylamino)-2,2-dimethylpropanal",CCN(CC)CC(C)(C)C=O,449.15,9,"[1, 6, 7, 8]",4,True,CHON,aldehyde
7256,1-propan-2-ylcyclohexan-1-ol,CC(C)C1(CCCCC1)O,449.15,9,"[1, 6, 8]",3,True,CHO,alcohol
7257,"N-tert-butyl-2,2-dimethylpropan-1-amine",CC(C)(C)CNC(C)(C)C,449.23,9,"[1, 6, 7]",3,True,CHN,amine
7258,1-methoxybicyclo[2.2.2]oct-2-ene,COC12CCC(CC1)C=C2,449.36,9,"[1, 6, 8]",3,True,CHO,ester
7259,2-(butan-2-yloxymethoxy)butane,CCC(C)OCOC(C)CC,449.48,9,"[1, 6, 8]",3,True,CHO,ester
7260,"7,7-dimethylbicyclo[3.2.0]hept-2-en-6-one",CC1(C2C=CCC2C1=O)C,449.65,9,"[1, 6, 8]",3,True,CHO,alkene
7261,2-methylpropyl (Z)-2-methylbut-2-enoate,C/C=C(/C)\C(=O)OCC(C)C,449.65,9,"[1, 6, 8]",3,True,CHO,ester
7262,"1,1-diethoxypentane",CCCCC(OCC)OCC,449.92,9,"[1, 6, 8]",3,True,CHO,ester
7263,1-(1-ethoxyethoxy)pentane,CCCCCOC(C)OCC,449.92,9,"[1, 6, 8]",3,True,CHO,ester
7264,1-(1-methoxyethoxy)hexane,CCCCCCOC(C)OC,449.92,9,"[1, 6, 8]",3,True,CHO,ester
7265,"1,2-dimethylcyclohex-3-ene-1-carbaldehyde",CC1C=CCCC1(C)C=O,450.15,9,"[1, 6, 8]",3,True,CHO,alkene
7266,ethyl 3-methylhexanoate,CCCC(C)CC(=O)OCC,450.15,9,"[1, 6, 8]",3,True,CHO,ester
7267,"4-methylidene-1,3-diazatricyclo[3.3.1.13,7]decane",C=C1C2CC3CN(C2)CN1C3,450.18,9,"[1, 6, 7]",3,True,CHN,alkene
7268,1-methoxybicyclo[2.2.2]octane,COC12CCC(CC1)CC2,450.2,9,"[1, 6, 8]",3,True,CHO,ester
7269,"2,3,4,5,6,7-hexahydro-1H-indene",C1CCC2=C(C1)CCC2,450.27,9,"[1, 6]",2,True,CH,alkene
7270,1-(2-propoxyethoxy)butane,CCCCOCCOCCC,450.36,9,"[1, 6, 8]",3,True,CHO,ester
7271,"3,3,5-trimethylhexanal",CC(C)CC(C)(C)CC=O,450.51,9,"[1, 6, 8]",3,True,CHO,aldehyde
7272,3-ethyl-2-methylhexan-2-ol,CCCC(CC)C(C)(C)O,450.65,9,"[1, 6, 8]",3,True,CHO,alcohol
7273,1-methoxy-5-methyl-3-methylidenecyclohexene,CC1CC(=C)C=C(C1)OC,450.79,9,"[1, 6, 8]",3,True,CHO,ester
7274,4-ethoxy-3-hydroxybenzaldehyde,CCOC1=C(C=C(C=C1)C=O)O,451.15,9,"[1, 6, 8]",3,True,CHO,ester
7275,"2,3,4,7-tetrahydro-1H-indene",C1CC2=C(C1)CC=CC2,451.2,9,"[1, 6]",2,True,CH,alkene
7276,1-ethenoxy-4-methylbenzene,CC1=CC=C(C=C1)OC=C,451.65,9,"[1, 6, 8]",3,True,CHO,ester
7277,"N,N,N',N',N"",N"",N""',N""'-octamethylmethanetetramine",CN(C)C(N(C)C)(N(C)C)N(C)C,452.05,9,"[1, 6, 7]",3,True,CHN,amine
7278,"2,3,4-trimethylhexan-3-ol",CCC(C)C(C)(C(C)C)O,452.15,9,"[1, 6, 8]",3,True,CHO,alcohol
7279,"4-methyl-2-pentyl-1,3-dioxolane",CCCCCC1OCC(O1)C,452.15,9,"[1, 6, 8]",3,True,CHO,ester
7280,"3,3,5-trimethylcyclohexan-1-amine",CC1CC(CC(C1)(C)C)N,452.75,9,"[1, 6, 7]",3,True,CHN,amine
7281,3-methyloctan-4-ol,CCCCC(C(C)CC)O,453.15,9,"[1, 6, 8]",3,True,CHO,alcohol
7282,"3,3,4,4-tetramethylpentan-2-ol",CC(C(C)(C)C(C)(C)C)O,453.15,9,"[1, 6, 8]",3,True,CHO,alcohol
7283,3-methoxy-8-methyl-8-azabicyclo[3.2.1]octane,CN1C2CCC1CC(C2)OC,453.46,9,"[1, 6, 7, 8]",4,True,CHON,ester
7284,2-methoxy-8-methyl-8-azabicyclo[3.2.1]octane,CN1C2CCC1C(CC2)OC,453.46,9,"[1, 6, 7, 8]",4,True,CHON,ester
7285,3-ethylheptanal,CCCCC(CC)CC=O,453.74,9,"[1, 6, 8]",3,True,CHO,aldehyde
7286,2-methyloctanal,CCCCCCC(C)C=O,453.74,9,"[1, 6, 8]",3,True,CHO,aldehyde
7287,N-ethylheptan-1-amine,CCCCCCCNCC,453.85,9,"[1, 6, 7]",3,True,CHN,amine
7288,"1,3,5-trimethylcyclohexan-1-ol",CC1CC(CC(C1)(C)O)C,454.15,9,"[1, 6, 8]",3,True,CHO,alcohol
7289,2-methyloctan-3-ol,CCCCCC(C(C)C)O,454.65,9,"[1, 6, 8]",3,True,CHO,alcohol
7290,"1-propan-2-yloxycyclohexa-1,4-diene",CC(C)OC1=CCC=CC1,455.02,9,"[1, 6, 8]",3,True,CHO,ester
7291,"2-propan-2-yloxycyclohexa-1,3-diene",CC(C)OC1=CCCC=C1,455.02,9,"[1, 6, 8]",3,True,CHO,ester
7292,"1,1-dimethoxyheptane",CCCCCCC(OC)OC,455.15,9,"[1, 6, 8]",3,True,CHO,ester
7293,4-methyloctan-2-one,CCCCC(C)CC(=O)C,455.15,9,"[1, 6, 8]",3,True,CHO,ketone
7294,3-ethylheptan-3-ol,CCCCC(CC)(CC)O,455.35,9,"[1, 6, 8]",3,True,CHO,alcohol
7295,7-methyloctan-3-one,CCC(=O)CCCC(C)C,455.65,9,"[1, 6, 8]",3,True,CHO,ketone
7296,2-(2-methylpropyl)pyridine,CC(C)CC1=CC=CC=N1,455.65,9,"[1, 6, 7]",3,True,CHN,aromatic
7297,"1-methoxy-3,5-dimethylcyclohexa-1,4-diene",CC1C=C(CC(=C1)OC)C,455.77,9,"[1, 6, 8]",3,True,CHO,ester
7298,"3-methoxy-1,5-dimethylcyclohexa-1,3-diene",CC1CC(=CC(=C1)OC)C,455.77,9,"[1, 6, 8]",3,True,CHO,ester
7299,non-8-en-2-one,CC(=O)CCCCCC=C,456.07,9,"[1, 6, 8]",3,True,CHO,alkene
7300,"2,3-dimethylheptan-2-ol",CCCCC(C)C(C)(C)O,456.65,9,"[1, 6, 8]",3,True,CHO,alcohol
7301,2-methylprop-2-enyl 2-methylidenebutanoate,CCC(=C)C(=O)OCC(=C)C,456.86,9,"[1, 6, 8]",3,True,CHO,ester
7302,2-methyloctan-4-ol,CCCCC(CC(C)C)O,457.15,9,"[1, 6, 8]",3,True,CHO,alcohol
7303,"ethyl 3,3-dimethylpent-4-enoate",CCOC(=O)CC(C)(C)C=C,457.19,9,"[1, 6, 8]",3,True,CHO,ester
7304,3-ethyl-2-methylhexan-3-ol,CCCC(CC)(C(C)C)O,457.25,9,"[1, 6, 8]",3,True,CHO,alcohol
7305,1-(cyclopenten-1-yl)pyrrolidine,C1CCN(C1)C2=CCCC2,457.73,9,"[1, 6, 7]",3,True,CHN,alkene
7306,1-(cyclohexen-1-yl)azetidine,C1CCC(=CC1)N2CCC2,457.73,9,"[1, 6, 7]",3,True,CHN,alkene
7307,"3,3,6,6,9,9-hexamethyl-1,2,4,5,7,8-hexaoxonane",CC1(OOC(OOC(OO1)(C)C)(C)C)C,458.08,9,"[1, 6, 8]",3,True,CHO,ester
7308,7-methyloctan-4-ol,CCCC(CCC(C)C)O,458.15,9,"[1, 6, 8]",3,True,CHO,alcohol
7309,"1-phenylpropane-1,2,3-triol",C1=CC=C(C=C1)C(C(CO)O)O,458.15,9,"[1, 6, 8]",3,True,CHO,aromatic
7310,(Z)-non-6-enal,CC/C=C\CCCCC=O,458.34,9,"[1, 6, 8]",3,True,CHO,alkene
7311,"N,N-dimethyl-2-(4-methylpiperazin-1-yl)ethanamine",CN1CCN(CC1)CCN(C)C,458.52,9,"[1, 6, 7]",3,True,CHN,amine
7312,"6-ethyl-2,3-dimethylpyridine",CCC1=NC(=C(C=C1)C)C,458.65,9,"[1, 6, 7]",3,True,CHN,aromatic
7313,8-methoxy-8-oxooctanoic acid,COC(=O)CCCCCCC(=O)O,458.65,9,"[1, 6, 8]",3,True,CHO,carboxylic_acid
7314,3-methyloctan-2-one,CCCCCC(C)C(=O)C,458.95,9,"[1, 6, 8]",3,True,CHO,ketone
7315,4-methyloctan-3-one,CCCCC(C)C(=O)CC,458.95,9,"[1, 6, 8]",3,True,CHO,ketone
7316,2-methyloctan-4-one,CCCCC(=O)CC(C)C,458.95,9,"[1, 6, 8]",3,True,CHO,ketone
7317,5-ethylheptan-2-one,CCC(CC)CCC(=O)C,458.95,9,"[1, 6, 8]",3,True,CHO,ketone
7318,5-methyloctan-2-one,CCCC(C)CCC(=O)C,458.95,9,"[1, 6, 8]",3,True,CHO,ketone
7319,1-(1-methylcyclohexyl)ethanone,CC(=O)C1(CCCCC1)C,459.35,9,"[1, 6, 8]",3,True,CHO,ketone
7320,4-methylpentan-2-yl prop-2-enoate,CC(C)CC(C)OC(=O)C=C,459.54,9,"[1, 6, 8]",3,True,CHO,ester
7321,3-methylbutyl 2-methylprop-2-enoate,CC(C)CCOC(=O)C(=C)C,459.86,9,"[1, 6, 8]",3,True,CHO,ester
7322,2-methylpropyl 2-methylidenebutanoate,CCC(=C)C(=O)OCC(C)C,459.86,9,"[1, 6, 8]",3,True,CHO,ester
7323,4-methylpentyl prop-2-enoate,CC(C)CCCOC(=O)C=C,459.98,9,"[1, 6, 8]",3,True,CHO,ester
7324,hept-1-en-3-yl acetate,CCCCC(C=C)OC(=O)C,459.98,9,"[1, 6, 8]",3,True,CHO,ester
7325,"2-methylpropyl 2,2-dimethylpropanoate",CC(C)COC(=O)C(C)(C)C,460.07,9,"[1, 6, 8]",3,True,CHO,ester
7326,"butan-2-yl 2,2-dimethylpropanoate",CCC(C)OC(=O)C(C)(C)C,460.07,9,"[1, 6, 8]",3,True,CHO,ester
7327,tert-butyl 3-methylbutanoate,CC(C)CC(=O)OC(C)(C)C,460.07,9,"[1, 6, 8]",3,True,CHO,ester
7328,"2,2,6-trimethylcyclohexan-1-ol",CC1CCCC(C1O)(C)C,460.15,9,"[1, 6, 8]",3,True,CHO,alcohol
7329,pentyl 2-methylprop-2-enoate,CCCCCOC(=O)C(=C)C,460.3,9,"[1, 6, 8]",3,True,CHO,ester
7330,butyl pent-4-enoate,CCCCOC(=O)CCC=C,460.42,9,"[1, 6, 8]",3,True,CHO,ester
7331,"butyl 2,2-dimethylpropanoate",CCCCOC(=O)C(C)(C)C,460.51,9,"[1, 6, 8]",3,True,CHO,ester
7332,"ethyl 2,2-dimethylpentanoate",CCCC(C)(C)C(=O)OCC,460.51,9,"[1, 6, 8]",3,True,CHO,ester
7333,tert-butyl pentanoate,CCCCC(=O)OC(C)(C)C,460.51,9,"[1, 6, 8]",3,True,CHO,ester
7334,methyl 2-ethyl-2-methylpentanoate,CCCC(C)(CC)C(=O)OC,460.51,9,"[1, 6, 8]",3,True,CHO,ester
7335,"2,4-diethylpyridine",CCC1=CC(=NC=C1)CC,460.65,9,"[1, 6, 7]",3,True,CHN,aromatic
7336,2-(4-methylpentan-2-yloxymethyl)oxirane,CC(C)CC(C)OCC1CO1,460.75,9,"[1, 6, 8]",3,True,CHO,ester
7337,"5,6-dimethylhept-5-en-2-one",CC(=C(C)CCC(=O)C)C,461.15,9,"[1, 6, 8]",3,True,CHO,alkene
7338,"2-ethyl-2,4-dimethylpentan-1-ol",CCC(C)(CC(C)C)CO,461.15,9,"[1, 6, 8]",3,True,CHO,alcohol
7339,"3-ethyl-2,6-dimethylpyridine",CCC1=C(N=C(C=C1)C)C,461.15,9,"[1, 6, 7]",3,True,CHN,aromatic
7340,"2,2,5-trimethylcyclohexan-1-ol",CC1CCC(C(C1)O)(C)C,461.15,9,"[1, 6, 8]",3,True,CHO,alcohol
7341,2-(hexoxymethyl)oxirane,CCCCCCOCC1CO1,461.63,9,"[1, 6, 8]",3,True,CHO,ester
7342,5-methyl-2-propan-2-ylcyclopent-2-en-1-one,CC1CC=C(C1=O)C(C)C,461.9,9,"[1, 6, 8]",3,True,CHO,alkene
7343,"N,N-dimethyl-1,1-dipropoxymethanamine",CCCOC(N(C)C)OCCC,462.36,9,"[1, 6, 7, 8]",4,True,CHON,ester
7344,9-methoxy-9-azabicyclo[3.3.1]nonane,CON1C2CCCC1CCC2,462.4,9,"[1, 6, 7, 8]",4,True,CHON,ester
7345,"2,4-dimethylpentan-3-yl acetate",CC(C)C(C(C)C)OC(=O)C,462.42,9,"[1, 6, 8]",3,True,CHO,ester
7346,"(2E,6Z)-nona-2,6-dienal",CC/C=C\CC/C=C/C=O,462.5,9,"[1, 6, 8]",3,True,CHO,alkene
7347,"(2E,4E)-nona-2,4-dienal",CCCC/C=C/C=C/C=O,462.5,9,"[1, 6, 8]",3,True,CHO,alkene
7348,"nona-2,6-dienal",CCC=CCCC=CC=O,462.5,9,"[1, 6, 8]",3,True,CHO,alkene
7349,2-methylpropyl 2-methylbutanoate,CCC(C)C(=O)OCC(C)C,462.86,9,"[1, 6, 8]",3,True,CHO,ester
7350,2-methylbutyl 2-methylpropanoate,CCC(C)COC(=O)C(C)C,462.86,9,"[1, 6, 8]",3,True,CHO,ester
7351,propan-2-yl 2-ethylbutanoate,CCC(CC)C(=O)OC(C)C,462.86,9,"[1, 6, 8]",3,True,CHO,ester
7352,pentan-2-yl 2-methylpropanoate,CCCC(C)OC(=O)C(C)C,462.86,9,"[1, 6, 8]",3,True,CHO,ester
7353,3-methylbutan-2-yl butanoate,CCCC(=O)OC(C)C(C)C,462.86,9,"[1, 6, 8]",3,True,CHO,ester
7354,"3,6-dimethylhept-5-en-2-one",CC(CC=C(C)C)C(=O)C,462.99,9,"[1, 6, 8]",3,True,CHO,alkene
7355,7-methyloct-5-en-4-one,CCCC(=O)C=CC(C)C,463.11,9,"[1, 6, 8]",3,True,CHO,alkene
7356,(E)-5-ethylhept-3-en-2-one,CCC(CC)/C=C/C(=O)C,463.11,9,"[1, 6, 8]",3,True,CHO,alkene
7357,methyl 2-ethylhexanoate,CCCCC(CC)C(=O)OC,463.3,9,"[1, 6, 8]",3,True,CHO,ester
7358,butan-2-yl pentanoate,CCCCC(=O)OC(C)CC,463.3,9,"[1, 6, 8]",3,True,CHO,ester
7359,2-methylbutyl butanoate,CCCC(=O)OCC(C)CC,463.3,9,"[1, 6, 8]",3,True,CHO,ester
7360,methyl 2-methylheptanoate,CCCCCC(C)C(=O)OC,463.3,9,"[1, 6, 8]",3,True,CHO,ester
7361,pentan-2-yl butanoate,CCCC(C)OC(=O)CCC,463.3,9,"[1, 6, 8]",3,True,CHO,ester
7362,6-methyloct-5-en-2-one,CCC(=CCCC(=O)C)C,463.43,9,"[1, 6, 8]",3,True,CHO,alkene
7363,(E)-non-3-en-2-one,CCCCC/C=C/C(=O)C,463.55,9,"[1, 6, 8]",3,True,CHO,alkene
7364,(E)-non-2-en-4-one,CCCCCC(=O)/C=C/C,463.55,9,"[1, 6, 8]",3,True,CHO,alkene
7365,"4,6-dimethylheptan-2-one",CC(C)CC(C)CC(=O)C,463.65,9,"[1, 6, 8]",3,True,CHO,ketone
7366,"2,2-dimethoxybicyclo[2.2.1]heptane",COC1(CC2CCC1C2)OC,463.68,9,"[1, 6, 8]",3,True,CHO,ester
7367,"3,4,4-trimethylhexan-1-ol",CCC(C)(C)C(C)CCO,464.15,9,"[1, 6, 8]",3,True,CHO,alcohol
7368,2-but-3-ynoxyoxane,C#CCCOC1CCCCO1,464.56,9,"[1, 6, 8]",3,True,CHO,ester
7369,"methyl (4E)-octa-4,7-dienoate",COC(=O)CC/C=C/CC=C,464.58,9,"[1, 6, 8]",3,True,CHO,ester
7370,tert-butyl (E)-pent-3-enoate,C/C=C/CC(=O)OC(C)(C)C,464.67,9,"[1, 6, 8]",3,True,CHO,ester
7371,1-[bis(prop-2-enyl)amino]propan-2-one,CC(=O)CN(CC=C)CC=C,465.19,9,"[1, 6, 7, 8]",4,True,CHON,ketone
7372,5-methyl-3-(2-methylpropyl)oxolan-2-one,CC1CC(C(=O)O1)CC(C)C,465.37,9,"[1, 6, 8]",3,True,CHO,ester
7373,2-methoxyethylbenzene,COCCC1=CC=CC=C1,465.65,9,"[1, 6, 8]",3,True,CHO,ester
7374,nonan-4-ol,CCCCCC(CCC)O,465.65,9,"[1, 6, 8]",3,True,CHO,alcohol
7375,"1,5-diazabicyclo[3.3.3]undecane",C1CN2CCCN(C1)CCC2,466.03,9,"[1, 6, 7]",3,True,CHN,amine
7376,"1,6-diazabicyclo[4.4.1]undecane",C1CCN2CCCCN(C1)C2,466.03,9,"[1, 6, 7]",3,True,CHN,amine
7377,"1,6-diazabicyclo[4.3.2]undecane",C1CCN2CCCN(C1)CC2,466.03,9,"[1, 6, 7]",3,True,CHN,amine
7378,"1,7-diazabicyclo[5.3.1]undecane",C1CCN2CCCN(C2)CC1,466.03,9,"[1, 6, 7]",3,True,CHN,amine
7379,ethyl hept-2-ynoate,CCCCC#CC(=O)OCC,466.15,9,"[1, 6, 8]",3,True,CHO,ester
7380,3-ethyl-2-methylhexan-1-ol,CCCC(CC)C(C)CO,466.15,9,"[1, 6, 8]",3,True,CHO,alcohol
7381,2-ethyl-3-methylhexan-1-ol,CCCC(C)C(CC)CO,466.15,9,"[1, 6, 8]",3,True,CHO,alcohol
7382,"2-ethenyl-4,4,6-trimethyl-1,3-dioxane",CC1CC(OC(O1)C=C)(C)C,466.55,9,"[1, 6, 8]",3,True,CHO,ester
7383,"nona-2,4,6-trienal",CCC=CC=CC=CC=O,466.66,9,"[1, 6, 8]",3,True,CHO,alkene
7384,"2-methoxy-1,4-dimethylbenzene",CC1=CC(=C(C=C1)C)OC,467.15,9,"[1, 6, 8]",3,True,CHO,ester
7385,4-butylpiperidine,CCCCC1CCNCC1,467.15,9,"[1, 6, 7]",3,True,CHN,amine
7386,butan-2-yl (E)-2-methylbut-2-enoate,CCC(C)OC(=O)/C(=C/C)/C,467.34,9,"[1, 6, 8]",3,True,CHO,ester
7387,2-methylpropyl 3-methylbut-2-enoate,CC(C)COC(=O)C=C(C)C,467.34,9,"[1, 6, 8]",3,True,CHO,ester
7388,3-methylbut-2-enyl 2-methylpropanoate,CC(C)C(=O)OCC=C(C)C,467.34,9,"[1, 6, 8]",3,True,CHO,ester
7389,oxiran-2-ylmethyl hexanoate,CCCCCC(=O)OCC1CO1,467.35,9,"[1, 6, 8]",3,True,CHO,ester
7390,3-methylbutyl but-2-enoate,CC=CC(=O)OCCC(C)C,467.46,9,"[1, 6, 8]",3,True,CHO,ester
7391,butyl 2-methylbut-2-enoate,CCCCOC(=O)C(=CC)C,467.78,9,"[1, 6, 8]",3,True,CHO,ester
7392,butyl (E)-2-methylbut-2-enoate,CCCCOC(=O)/C(=C/C)/C,467.78,9,"[1, 6, 8]",3,True,CHO,ester
7393,3-methylbut-2-enyl butanoate,CCCC(=O)OCC=C(C)C,467.78,9,"[1, 6, 8]",3,True,CHO,ester
7394,3-methylpent-3-enyl propanoate,CCC(=O)OCCC(=CC)C,467.78,9,"[1, 6, 8]",3,True,CHO,ester
7395,methyl (E)-oct-4-enoate,CCC/C=C/CCC(=O)OC,467.9,9,"[1, 6, 8]",3,True,CHO,ester
7396,methyl (E)-oct-2-enoate,CCCCC/C=C/C(=O)OC,467.9,9,"[1, 6, 8]",3,True,CHO,ester
7397,[(E)-hept-2-enyl] acetate,CCCC/C=C/COC(=O)C,467.9,9,"[1, 6, 8]",3,True,CHO,ester
7398,butyl (E)-pent-3-enoate,CCCCOC(=O)C/C=C/C,467.9,9,"[1, 6, 8]",3,True,CHO,ester
7399,methyl (Z)-oct-4-enoate,CCC/C=C\CCC(=O)OC,467.9,9,"[1, 6, 8]",3,True,CHO,ester
7400,pentyl (E)-but-2-enoate,CCCCCOC(=O)/C=C/C,467.9,9,"[1, 6, 8]",3,True,CHO,ester
7401,methyl (E)-oct-3-enoate,CCCC/C=C/CC(=O)OC,467.9,9,"[1, 6, 8]",3,True,CHO,ester
7402,[(E)-hept-1-enyl] acetate,CCCCC/C=C/OC(=O)C,467.9,9,"[1, 6, 8]",3,True,CHO,ester
7403,[(E)-hex-2-enyl] propanoate,CCC/C=C/COC(=O)CC,467.9,9,"[1, 6, 8]",3,True,CHO,ester
7404,methyl (Z)-oct-3-enoate,CCCC/C=C\CC(=O)OC,467.9,9,"[1, 6, 8]",3,True,CHO,ester
7405,butyl (E)-pent-2-enoate,CCCCOC(=O)/C=C/CC,467.9,9,"[1, 6, 8]",3,True,CHO,ester
7406,3-tert-butylpyridine,CC(C)(C)C1=CN=CC=C1,467.95,9,"[1, 6, 7]",3,True,CHN,aromatic
7407,4-pentylmorpholine,CCCCCN1CCOCC1,468.15,9,"[1, 6, 7, 8]",4,True,CHON,ester
7408,4-(2-methylpropyl)pyridine,CC(C)CC1=CC=NC=C1,468.15,9,"[1, 6, 7]",3,True,CHN,aromatic
7409,2-ethyl-4-methylhexan-1-ol,CCC(C)CC(CC)CO,468.15,9,"[1, 6, 8]",3,True,CHO,alcohol
7410,"2-amino-3,5-dimethylbenzoic acid",CC1=CC(=C(C(=C1)C(=O)O)N)C,468.15,9,"[1, 6, 7, 8]",4,True,CHON,carboxylic_acid
7411,"2,3,6-trimethylcyclohexan-1-ol",CC1CCC(C(C1C)O)C,468.15,9,"[1, 6, 8]",3,True,CHO,alcohol
7412,4-(dimethoxymethyl)cyclohexene,COC(C1CCC=CC1)OC,468.63,9,"[1, 6, 8]",3,True,CHO,ester
7413,"prop-2-enyl (2E,4E)-hexa-2,4-dienoate",C/C=C/C=C/C(=O)OCC=C,468.74,9,"[1, 6, 8]",3,True,CHO,ester
7414,1-(4-methylcyclohexyl)ethanone,CC1CCC(CC1)C(=O)C,469.15,9,"[1, 6, 8]",3,True,CHO,ketone
7415,"1,1-dimethoxy-3-methylidenecyclohexane",COC1(CCCC(=C)C1)OC,469.31,9,"[1, 6, 8]",3,True,CHO,ester
7416,"ethyl N,N-bis(prop-2-enyl)carbamate",CCOC(=O)N(CC=C)CC=C,469.54,9,"[1, 6, 7, 8]",4,True,CHON,ester
7417,2-pentyl-2H-furan-5-one,CCCCCC1C=CC(=O)O1,469.64,9,"[1, 6, 8]",3,True,CHO,ester
7418,3-butylpiperidine,CCCCC1CCCNC1,469.65,9,"[1, 6, 7]",3,True,CHN,amine
7419,3-(3-methylbutyl)oxolan-2-one,CC(C)CCC1CCOC1=O,470.04,9,"[1, 6, 8]",3,True,CHO,ester
7420,2-butylcyclopentan-1-one,CCCCC1CCCC1=O,470.15,9,"[1, 6, 8]",3,True,CHO,ketone
7421,1-ethyl-3-methoxybenzene,CCC1=CC(=CC=C1)OC,470.15,9,"[1, 6, 8]",3,True,CHO,ester
7422,4-tert-butylpiperidine,CC(C)(C)C1CCNCC1,470.39,9,"[1, 6, 7]",3,True,CHN,amine
7423,"2,3,5,6-tetramethylpyridine",CC1=CC(=C(N=C1C)C)C,470.65,9,"[1, 6, 7]",3,True,CHN,aromatic