,Name,SMILES,Tb,C Atom,Atom,Count Unique Atom,Pass Screen,Atom2,Func. Group
2593,N-Propylaniline,CCCNC1=CC=CC=C1,495.15,9,"[1, 6, 7]",3,True,CHN,aromatic
2594,Propionanilide,CCC(=O)NC1=CC=CC=C1,495.34999999999997,9,"[1, 6, 7, 8]",4,True,CHON,aromatic
2595,1-Piperidinecarboxaldehyde,C1CCN(CC1)C=O,495.65,6,"[1, 6, 7, 8]",4,True,CHON,amide
2596,Metaxalone,CC1=CC(=CC(=C1)OCC2CNC(=O)O2)C,496.15,12,"[1, 6, 7, 8]",4,True,CHON,ester
2597,"2-Pyridinamine, 3-Methyl-",CC1=C(N=CC=C1)N,496.15,6,"[1, 6, 7]",3,True,CHN,aromatic
2598,1-Amino-3-Diethylamino-Propan-2-Ol,CCN(CC)CC(CN)O,496.15,7,"[1, 6, 7, 8]",4,True,CHON,alcohol
2599,Diacetamide,CC(=O)NC(=O)C,496.65,4,"[1, 6, 7, 8]",4,True,CHON,amide
2600,"1,7-Diaminoheptane",C(CCCN)CCCN,497.15,7,"[1, 6, 7]",3,True,CHN,amine
2601,2-Methoxyaniline,COC1=CC=CC=C1N,497.15,7,"[1, 6, 7, 8]",4,True,CHON,ester
2602,"Nicotinic Acid, Ethyl Ester",CCOC(=O)C1=CN=CC=C1,497.15,8,"[1, 6, 7, 8]",4,True,CHON,ester
2603,2-Cyanopyridine,C1=CC=NC(=C1)C#N,497.65,6,"[1, 6, 7]",3,True,CHN,aromatic
2604,P-Phenylazophenol,C1=CC=C(C=C1)N=NC2=CC=C(C=C2)O,498.15,12,"[1, 6, 7, 8]",4,True,CHON,aromatic
2605,N-Nitrosomorpholine,C1COCCN1N=O,498.15,4,"[1, 6, 7, 8]",4,True,CHON,ester
2606,Pentanamide,CCCCC(=O)N,498.15,5,"[1, 6, 7, 8]",4,True,CHON,amide
2607,"1,8-Octanediamine",C(CCCCN)CCCN,498.15,8,"[1, 6, 7]",3,True,CHN,amine
2608,P-Isopropylaniline,CC(C)C1=CC=C(C=C1)N,498.15,9,"[1, 6, 7]",3,True,CHN,aromatic
2609,"Benzenamine, 4-Propyl-",CCCC1=CC=C(C=C1)N,498.15,9,"[1, 6, 7]",3,True,CHN,aromatic
2610,"Pyridine, 4-(3-Cyclohexen-1-Yl)-",C1CC(CC=C1)C2=CC=NC=C2,499.15,11,"[1, 6, 7]",3,True,CHN,alkene
2611,"Butanamide, 3-Methyl-",CC(C)CC(=O)N,499.15,5,"[1, 6, 7, 8]",4,True,CHON,amide
2612,Conhydrine,CCC(C1CCCCN1)O,499.15,8,"[1, 6, 7, 8]",4,True,CHON,alcohol
2613,2-Propylaniline,CCCC1=CC=CC=C1N,499.15,9,"[1, 6, 7]",3,True,CHN,aromatic
2614,"Piperidine, 1-Acetyl-",CC(=O)N1CCCCC1,499.65,7,"[1, 6, 7, 8]",4,True,CHON,amide
2615,4-Morpholineethanol,C1COCCN1CCO,500.15,6,"[1, 6, 7, 8]",4,True,CHON,ester
2616,2-Amino-5-Methylpyridine,CC1=CN=C(C=C1)N,500.15,6,"[1, 6, 7]",3,True,CHN,aromatic
2617,Dopamine,C1=CC(=C(C=C1CCN)O)O,500.15,8,"[1, 6, 7, 8]",4,True,CHON,alcohol
2618,"8-Azabicyclo[3.2.1]octan-3-One, 8-Methyl-",CN1C2CCC1CC(=O)C2,500.15,8,"[1, 6, 7, 8]",4,True,CHON,ketone
2619,Oxindole,C1C2=CC=CC=C2NC1=O,500.15,8,"[1, 6, 7, 8]",4,True,CHON,aromatic
2620,4-Piperidineethanol,C1CNCCC1CCO,500.65,7,"[1, 6, 7, 8]",4,True,CHON,alcohol
2621,"Hydrazine, 1-Methyl-1-Phenyl-",CN(C1=CC=CC=C1)N,501.15,7,"[1, 6, 7]",3,True,CHN,aromatic
2622,"3,4-Xylidine",CC1=C(C=C(C=C1)N)C,501.15,8,"[1, 6, 7]",3,True,CHN,aromatic
2623,2-Dibutylaminoethanol,CCCCN(CCCC)CCO,502.15,10,"[1, 6, 7, 8]",4,True,CHON,alcohol
2624,"Benzenamine, N,n-Diethyl-4-Methyl-",CCN(CC)C1=CC=C(C=C1)C,502.15,11,"[1, 6, 7]",3,True,CHN,aromatic
2625,"Acetamide, N-Butyl-",CCCCNC(=O)C,502.15,6,"[1, 6, 7, 8]",4,True,CHON,amide
2626,2-Methoxy-Benzylamine,COC1=CC=CC=C1CN,502.15,8,"[1, 6, 7, 8]",4,True,CHON,ester
2627,"1h-Indole, 2,3-Dihydro-",C1CNC2=CC=CC=C21,502.15,8,"[1, 6, 7]",3,True,CHN,aromatic
2628,Quinoxaline,C1=CC=C2C(=C1)N=CC=N2,502.65,8,"[1, 6, 7]",3,True,CHN,aromatic
2629,Cyanic Acid,C(#N)O,296.15,1,"[1, 6, 7, 8]",4,True,CHON,alcohol
2630,4-Pyridinemethaneamine,C1=CN=CC=C1CN,503.15,6,"[1, 6, 7]",3,True,CHN,aromatic
2631,"Acetic Acid, Cyano-, Butyl Ester",CCCCOC(=O)CC#N,504.15,7,"[1, 6, 7, 8]",4,True,CHON,ester
2632,"Benzenamine, 2-Ethyl-6-Methyl-",CCC1=CC=CC(=C1N)C,504.15,9,"[1, 6, 7]",3,True,CHN,aromatic
2633,"Benzeneacetonitrile, .alpha.-Methyl-",CC(C#N)C1=CC=CC=C1,504.15,9,"[1, 6, 7]",3,True,CHN,aromatic
2634,"Benzenamine, N,n-Diethyl-3-Methyl-",CCN(CC)C1=CC=CC(=C1)C,504.65,11,"[1, 6, 7]",3,True,CHN,aromatic
2635,"Urea, Trimethyl-",CNC(=O)N(C)C,505.65,4,"[1, 6, 7, 8]",4,True,CHON,amide
2636,"1,3-Propanediamine, N-(3-Aminopropyl)-n-Methyl-",CN(CCCN)CCCN,505.65,7,"[1, 6, 7]",3,True,CHN,amine
2637,2-Ethoxyaniline,CCOC1=CC=CC=C1N,505.65,8,"[1, 6, 7, 8]",4,True,CHON,ester
2638,"Isoquinoline, 1,2,3,4-Tetrahydro-",C1CNCC2=CC=CC=C21,505.65,9,"[1, 6, 7]",3,True,CHN,aromatic
2639,"Benzenamine, 2,4,6-Trimethyl-",CC1=CC(=C(C(=C1)C)N)C,505.65,9,"[1, 6, 7]",3,True,CHN,aromatic
2640,Tropine,CN1C2CCC1CC(C2)O,506.15,8,"[1, 6, 7, 8]",4,True,CHON,alcohol
2641,Phenylacetonitrile,C1=CC=C(C=C1)CC#N,506.65,8,"[1, 6, 7]",3,True,CHN,aromatic
2642,2-Tert-Butylaniline,CC(C)(C)C1=CC=CC=C1N,507.15,10,"[1, 6, 7]",3,True,CHN,aromatic
2643,"Pyrrole, 1-Phenyl-",C1=CC=C(C=C1)N2C=CC=C2,507.15,10,"[1, 6, 7]",3,True,CHN,aromatic
2644,N-Methylsuccinimide,CN1C(=O)CCC1=O,507.15,5,"[1, 6, 7, 8]",4,True,CHON,amide
2645,"2,4,5-Trimethylaniline",CC1=CC(=C(C=C1C)N)C,507.65,9,"[1, 6, 7]",3,True,CHN,aromatic
2646,2-Methoxy-5-Methylbenzenamine,CC1=CC(=C(C=C1)OC)N,508.15,8,"[1, 6, 7, 8]",4,True,CHON,ester
2647,"2,6-Diethylaniline",CCC1=C(C(=CC=C1)CC)N,508.65,10,"[1, 6, 7]",3,True,CHN,aromatic
2648,6-Aminohexanenitrile,C(CCC#N)CCN,508.65,6,"[1, 6, 7]",3,True,CHN,amine
2649,"1-Hexanamine, N-Hexyl-",CCCCCCNCCCCCC,509.15,12,"[1, 6, 7]",3,True,CHN,amine
2650,"2,5-Pyrrolidinedione, 1-Ethyl-",CCN1C(=O)CCC1=O,509.15,6,"[1, 6, 7, 8]",4,True,CHON,amide
2651,"Benzenemethanamine, 4-Methoxy-",COC1=CC=C(C=C1)CN,509.65,8,"[1, 6, 7, 8]",4,True,CHON,ester
2652,2-(2-Methoxyphenyl)ethylamine,COC1=CC=CC=C1CCN,509.65,9,"[1, 6, 7, 8]",4,True,CHON,ester
2653,"1-Piperazinecarboxylic Acid, Ethyl Ester",CCOC(=O)N1CCNCC1,510.15,7,"[1, 6, 7, 8]",4,True,CHON,ester
2654,"Hydrazine, 1-Ethyl-1-Phenyl-",CCN(C1=CC=CC=C1)N,510.15,8,"[1, 6, 7]",3,True,CHN,aromatic
2655,1-Methylindole,CN1C=CC2=CC=CC=C21,510.15,9,"[1, 6, 7]",3,True,CHN,aromatic
2656,Quinoline,C1=CC=C2C(=C1)C=CC=N2,510.25,9,"[1, 6, 7]",3,True,CHN,aromatic
2657,"2h-Azepin-2-One, Hexahydro-n-Methyl-",CN1CCCCCC1=O,510.65,7,"[1, 6, 7, 8]",4,True,CHON,amide
2658,"1,2,4-Benzotriazine",C1=CC=C2C(=C1)N=CN=N2,510.65,7,"[1, 6, 7]",3,True,CHN,aromatic
2659,"Benzenamine, 4-(1-Methylpropyl)-",CCC(C)C1=CC=C(C=C1)N,511.15,10,"[1, 6, 7]",3,True,CHN,aromatic
2660,Phenylurea,C1=CC=C(C=C1)NC(=O)N,511.15,7,"[1, 6, 7, 8]",4,True,CHON,aromatic
2661,N-Phenyl Ethylcarbamate,CCOC(=O)NC1=CC=CC=C1,511.15,9,"[1, 6, 7, 8]",4,True,CHON,ester
2662,2-(2-Aminoethylamino)ethanol,C(CNCCO)N,512.15,4,"[1, 6, 7, 8]",4,True,CHON,alcohol
2663,N-Formylmorpholine,C1COCCN1C=O,512.15,5,"[1, 6, 7, 8]",4,True,CHON,ester
2664,"Piperidine, 1-Acetyl-3-Methyl-",CC1CCCN(C1)C(=O)C,512.15,8,"[1, 6, 7, 8]",4,True,CHON,amide
2665,Octanamide,CCCCCCCC(=O)N,512.15,8,"[1, 6, 7, 8]",4,True,CHON,amide
2666,"Benzeneacetonitrile, .alpha.-Ethyl-",CCC(C#N)C1=CC=CC=C1,514.15,10,"[1, 6, 7]",3,True,CHN,aromatic
2667,Quinazoline,C1=CC=C2C(=C1)C=NC=N2,514.15,8,"[1, 6, 7]",3,True,CHN,aromatic
2668,"Benzenamine, N,n-Dipropyl-",CCCN(CCC)C1=CC=CC=C1,515.15,12,"[1, 6, 7]",3,True,CHN,aromatic
2669,4-Cyanoquinoline,C1=CC=C2C(=C1)C(=CC=N2)C#N,515.65,10,"[1, 6, 7]",3,True,CHN,aromatic
2670,"Benzeneacetonitrile, 4-Methyl-",CC1=CC=C(C=C1)CC#N,515.65,9,"[1, 6, 7]",3,True,CHN,aromatic
2671,4-Methoxyaniline,COC1=CC=C(C=C1)N,516.15,7,"[1, 6, 7, 8]",4,True,CHON,ester
2672,N-Methylformanilide,CN(C=O)C1=CC=CC=C1,516.15,8,"[1, 6, 7, 8]",4,True,CHON,amide
2673,"Picolinic Acid, Ethyl Ester",CCOC(=O)C1=CC=CC=N1,516.15,8,"[1, 6, 7, 8]",4,True,CHON,ester
2674,Isoquinoline,C1=CC=C2C=NC=CC2=C1,516.3499999999999,9,"[1, 6, 7]",3,True,CHN,aromatic
2675,N-Butylaniline,CCCCNC1=CC=CC=C1,516.65,10,"[1, 6, 7]",3,True,CHN,aromatic
2676,Phenyl Hydrazine,C1=CC=C(C=C1)NN,516.65,6,"[1, 6, 7]",3,True,CHN,aromatic
2677,2-Methylquinoxaline,CC1=NC2=CC=CC=C2N=C1,517.15,9,"[1, 6, 7]",3,True,CHN,aromatic
2678,O-Tolyl-Acetonitrile,CC1=CC=CC=C1CC#N,517.15,9,"[1, 6, 7]",3,True,CHN,aromatic
2679,"Quinoline, 4-Methoxy-",COC1=CC=NC2=CC=CC=C21,518.15,10,"[1, 6, 7, 8]",4,True,CHON,ester
2680,1-Benzylpiperidine,C1CCN(CC1)CC2=CC=CC=C2,518.15,12,"[1, 6, 7]",3,True,CHN,aromatic
2681,Pyrrolidone,C1CC(=O)NC1,518.15,4,"[1, 6, 7, 8]",4,True,CHON,amide
2682,"Ethanone, 1-Phenyl-, Oxime",C/C(=N\O)/C1=CC=CC=C1,518.15,8,"[1, 6, 7, 8]",4,True,CHON,aromatic
2683,"Quinoline, 2-Ethyl-",CCC1=NC2=CC=CC=C2C=C1,518.65,11,"[1, 6, 7]",3,True,CHN,aromatic
2684,"1-Methyl-1,2,3,4-Tetrahydro-Quinoline",CN1CCCC2=CC=CC=C21,519.15,10,"[1, 6, 7]",3,True,CHN,aromatic
2685,1-Piperazineethanol,C1CN(CCN1)CCO,519.15,6,"[1, 6, 7, 8]",4,True,CHON,alcohol
2686,"2,6-Dimethyl-Pyridin-4-Ylamine",CC1=CC(=CC(=N1)C)N,519.15,7,"[1, 6, 7]",3,True,CHN,aromatic
2687,9-Methyl-9-Azabicyclo[3.3.1]nonan-3-One,CN1C2CCCC1CC(=O)C2,519.15,9,"[1, 6, 7, 8]",4,True,CHON,ketone
2688,2-Methylquinoline,CC1=NC2=CC=CC=C2C=C1,519.65,10,"[1, 6, 7]",3,True,CHN,aromatic
2689,Isophorone Diamine,CC1(CC(CC(C1)(C)CN)N)C,520.15,10,"[1, 6, 7]",3,True,CHN,amine
2690,"1h-Pyrrole, 1-(phenylmethyl)-",C1=CC=C(C=C1)CN2C=CC=C2,520.15,11,"[1, 6, 7]",3,True,CHN,aromatic
2691,N-Methyldiethanolamine,CN(CCO)CCO,520.15,5,"[1, 6, 7, 8]",4,True,CHON,alcohol
2692,"Ethanol, 2,2'-(ethylimino)bis-",CCN(CCO)CCO,520.15,6,"[1, 6, 7, 8]",4,True,CHON,alcohol
2693,"1,3-Benzenedimethanamine",C1=CC(=CC(=C1)CN)CN,520.15,8,"[1, 6, 7]",3,True,CHN,aromatic
2694,8-Methylquinoline,CC1=C2C(=CC=C1)C=CC=N2,520.65,10,"[1, 6, 7]",3,True,CHN,aromatic
2695,"Isoquinoline, 1-Methyl-",CC1=NC=CC2=CC=CC=C12,521.15,10,"[1, 6, 7]",3,True,CHN,aromatic
2696,"2-Pyrrolidinone, 5-Methyl-",CC1CCC(=O)N1,521.15,5,"[1, 6, 7, 8]",4,True,CHON,amide
2697,Indan-5-Ylamine,C1CC2=C(C1)C=C(C=C2)N,521.15,9,"[1, 6, 7]",3,True,CHN,aromatic
2698,"Benzenamine, 4-Methoxy-2-Methyl-",CC1=C(C=CC(=C1)OC)N,521.65,8,"[1, 6, 7, 8]",4,True,CHON,ester
2699,"Quinoxaline, 6-Methyl-",CC1=CC2=NC=CN=C2C=C1,522.15,9,"[1, 6, 7]",3,True,CHN,aromatic
2700,"2-Pyrrolidinone, 1-Methyl-5-(3-Pyridinyl)-, (s)-",CN1C(CCC1=O)C2=CN=CC=C2,523.15,10,"[1, 6, 7, 8]",4,True,CHON,amide
2701,Diisopropanolamine,CC(CNCC(C)O)O,523.15,6,"[1, 6, 7, 8]",4,True,CHON,alcohol
2702,"2(1h)-Pyridinone, 1-Methyl-",CN1C=CC=CC1=O,523.15,6,"[1, 6, 7, 8]",4,True,CHON,aromatic
2703,Barbital,CCC1(C(=O)NC(=O)NC1=O)CC,523.15,8,"[1, 6, 7, 8]",4,True,CHON,amide
2704,M-Methoxyaniline,COC1=CC=CC(=C1)N,524.15,7,"[1, 6, 7, 8]",4,True,CHON,ester
2705,Phenacylamine,C1=CC=C(C=C1)C(=O)CN,524.15,8,"[1, 6, 7, 8]",4,True,CHON,ketone
2706,"1,2,3,4-Tetrahydroquinoline",C1CC2=CC=CC=C2NC1,524.15,9,"[1, 6, 7]",3,True,CHN,aromatic
2707,"2,4-Toluene Diisocyanate",CC1=C(C=C(C=C1)N=C=O)N=C=O,524.15,9,"[1, 6, 7, 8]",4,True,CHON,aromatic
2708,3-Aminopyridine,C1=CC(=CN=C1)N,525.15,5,"[1, 6, 7]",3,True,CHN,aromatic
2709,"1h-Indole, 1-Ethyl-",CCN1C=CC2=CC=CC=C21,525.65,10,"[1, 6, 7]",3,True,CHN,aromatic
2710,P-Ethoxyaniline,CCOC1=CC=C(C=C1)N,527.15,8,"[1, 6, 7, 8]",4,True,CHON,ester
2711,Indole,C1=CC=C2C(=C1)C=CN2,527.15,8,"[1, 6, 7]",3,True,CHN,aromatic
2712,3-Methyl-1-Phenylpyrazole,CC1=NN(C=C1)C2=CC=CC=C2,528.15,10,"[1, 6, 7]",3,True,CHN,aromatic
2713,Hexanamide,CCCCCC(=O)N,528.15,6,"[1, 6, 7, 8]",4,True,CHON,amide
2714,"2,3-Diaminotoluene",CC1=C(C(=CC=C1)N)N,528.15,7,"[1, 6, 7]",3,True,CHN,aromatic
2715,"Benzoic Acid, 2-(methylamino)-, Methyl Ester",CNC1=CC=CC=C1C(=O)OC,528.15,9,"[1, 6, 7, 8]",4,True,CHON,ester
2716,"2,8-Dimethylquinoline",CC1=C2C(=CC=C1)C=CC(=N2)C,528.45,11,"[1, 6, 7]",3,True,CHN,aromatic
2717,2-Methoxy-Benzonitrile,COC1=CC=CC=C1C#N,528.65,8,"[1, 6, 7, 8]",4,True,CHON,ester
2718,Dicyclohexylamine,C1CCC(CC1)NC2CCCCC2,528.95,12,"[1, 6, 7]",3,True,CHN,amine
2719,Delta-Valerolactam,C1CCNC(=O)C1,529.15,5,"[1, 6, 7, 8]",4,True,CHON,amide
2720,Methyl Anthranilate,COC(=O)C1=CC=CC=C1N,529.15,8,"[1, 6, 7, 8]",4,True,CHON,ester
2721,N-Methylacetanilide,CC(=O)N(C)C1=CC=CC=C1,529.15,9,"[1, 6, 7, 8]",4,True,CHON,amide
2722,"Benzonitrile, 4-Methoxy-",COC1=CC=C(C=C1)C#N,529.65,8,"[1, 6, 7, 8]",4,True,CHON,ester
2723,"Piperidine, 4-Phenyl-",C1CNCCC1C2=CC=CC=C2,530.15,11,"[1, 6, 7]",3,True,CHN,aromatic
2724,3-Phenyl-Piperidine,C1CC(CNC1)C2=CC=CC=C2,530.15,11,"[1, 6, 7]",3,True,CHN,aromatic
2725,"Benzenamine, 2,6-Bis(1-Methylethyl)-",CC(C)C1=C(C(=CC=C1)C(C)C)N,530.15,12,"[1, 6, 7]",3,True,CHN,aromatic
2726,Imidazole,C1=CN=CN1,530.15,3,"[1, 6, 7]",3,True,CHN,aromatic
2727,4-Hydroxypyridine,C1=CNC=CC1=O,530.15,5,"[1, 6, 7, 8]",4,True,CHON,aromatic
2728,"1,2-Benzenediamine",C1=CC=C(C(=C1)N)N,530.15,6,"[1, 6, 7]",3,True,CHN,aromatic
2729,7-Methylquinoline,CC1=CC2=C(C=CC=N2)C=C1,530.75,10,"[1, 6, 7]",3,True,CHN,aromatic
2730,N-Phenylpiperidine,C1CCN(CC1)C2=CC=CC=C2,531.15,11,"[1, 6, 7]",3,True,CHN,aromatic
2731,"N-Methyl-1,4-Benzenediamine",CNC1=CC=C(C=C1)N,531.15,7,"[1, 6, 7]",3,True,CHN,aromatic
2732,"Benzonitrile, 4-Ethoxy-",CCOC1=CC=C(C=C1)C#N,531.15,9,"[1, 6, 7, 8]",4,True,CHON,ester
2733,"1h-Indole, 1,3-Dimethyl-",CC1=CN(C2=CC=CC=C12)C,531.65,10,"[1, 6, 7]",3,True,CHN,aromatic
2734,6-Methylquinoline,CC1=CC2=C(C=C1)N=CC=C2,531.75,10,"[1, 6, 7]",3,True,CHN,aromatic
2735,N-Dodecylamine,CCCCCCCCCCCCN,532.15,12,"[1, 6, 7]",3,True,CHN,amine
2736,3-Methylquinoline,CC1=CC2=CC=CC=C2N=C1,532.95,10,"[1, 6, 7]",3,True,CHN,aromatic
2737,"Acetamide, N-Ethyl-n-Phenyl-",CCN(C1=CC=CC=C1)C(=O)C,533.15,10,"[1, 6, 7, 8]",4,True,CHON,amide
2738,"O-Acetotoluidide, N-Methyl-",CC1=CC=CC=C1N(C)C(=O)C,533.15,10,"[1, 6, 7, 8]",4,True,CHON,amide
2739,"N,n,n',n'-Tetramethyl-P-Phenylenediamine",CN(C)C1=CC=C(C=C1)N(C)C,533.15,10,"[1, 6, 7]",3,True,CHN,aromatic
2740,"1,2-Dihydro-2,2,4-Trimethylquinoline",CC1=CC(NC2=CC=CC=C12)(C)C,533.15,12,"[1, 6, 7]",3,True,CHN,alkene
2741,"2,6-Diaminotoluene",CC1=C(C=CC=C1N)N,533.15,7,"[1, 6, 7]",3,True,CHN,aromatic
2742,"Formamide, N-Cyclohexyl-",C1CCC(CC1)NC=O,533.15,7,"[1, 6, 7, 8]",4,True,CHON,amide
2743,"Benzene, 1,4-Diisocyanato-",C1=CC(=CC=C1N=C=O)N=C=O,533.15,8,"[1, 6, 7, 8]",4,True,CHON,aromatic
2744,"1h-1,2,4-Triazole",C1=NC=NN1,533.15,2,"[1, 6, 7]",3,True,CHN,aromatic
2745,2-Pyridinepropanol,C1=CC=NC(=C1)CCCO,533.3499999999999,8,"[1, 6, 7, 8]",4,True,CHON,aromatic
2746,4-Benzylmorpholine,C1COCCN1CC2=CC=CC=C2,533.65,11,"[1, 6, 7, 8]",4,True,CHON,ester
2747,"Benzenamine, 4-Butyl-",CCCCC1=CC=C(C=C1)N,534.15,10,"[1, 6, 7]",3,True,CHN,aromatic
2748,"(1r,2s)-(-)-Ephedrine",CC(C(C1=CC=CC=C1)O)NC,534.15,10,"[1, 6, 7, 8]",4,True,CHON,aromatic
2749,"N,n-Diethyl-1,4-Benzenediamine",CCN(CC)C1=CC=C(C=C1)N,534.15,10,"[1, 6, 7]",3,True,CHN,aromatic
2750,4-Methylquinoline,CC1=CC=NC2=CC=CC=C12,535.15,10,"[1, 6, 7]",3,True,CHN,aromatic
2751,"Quinoline, 5-Methyl-",CC1=C2C=CC=NC2=CC=C1,535.8499999999999,10,"[1, 6, 7]",3,True,CHN,aromatic
2752,"Quinoline, 2,3-Dimethyl-",CC1=CC2=CC=CC=C2N=C1C,536.15,11,"[1, 6, 7]",3,True,CHN,aromatic
2753,"1h-Imidazole, 4-Methyl-",CC1=CN=CN1,536.15,4,"[1, 6, 7]",3,True,CHN,aromatic
2754,"Benzonitrile, 2-Amino-",C1=CC=C(C(=C1)C#N)N,536.15,7,"[1, 6, 7]",3,True,CHN,aromatic
2755,"N,n-Dimethyl-P-Phenylenediamine",CN(C)C1=CC=C(C=C1)N,536.15,8,"[1, 6, 7]",3,True,CHN,aromatic
2756,3-Phenyl-2-Propenenitrile,C1=CC=C(C=C1)/C=C/C#N,536.95,9,"[1, 6, 7]",3,True,CHN,alkene
2757,"Quinoline, 2,7-Dimethyl-",CC1=CC2=C(C=C1)C=CC(=N2)C,537.65,11,"[1, 6, 7]",3,True,CHN,aromatic
2758,"Cyclohexanol, 3-(aminomethyl)-3,5,5-Trimethyl-",CC1(CC(CC(C1)(C)CN)O)C,538.15,10,"[1, 6, 7, 8]",4,True,CHON,alcohol
2759,"2,4-Dimethylquinoline",CC1=CC(=NC2=CC=CC=C12)C,538.15,11,"[1, 6, 7]",3,True,CHN,aromatic
2760,"Piperidine, 1,1'-(1,2-Ethanediyl)bis-",C1CCN(CC1)CCN2CCCCC2,538.15,12,"[1, 6, 7]",3,True,CHN,amine
2761,"3,4-Diaminotoluene",CC1=CC(=C(C=C1)N)N,538.15,7,"[1, 6, 7]",3,True,CHN,aromatic
2762,1-Aminopropanediol,C(C(CO)O)N,538.15,3,"[1, 6, 7, 8]",4,True,CHON,alcohol
2763,6-Methylisoquinoline,CC1=CC2=C(C=C1)C=NC=C2,538.65,10,"[1, 6, 7]",3,True,CHN,aromatic
2764,"Quinoline, 5,8-Dimethyl-",CC1=C2C=CC=NC2=C(C=C1)C,539.15,11,"[1, 6, 7]",3,True,CHN,aromatic
2765,"Quinoline, 3-Ethyl-",CCC1=CC2=CC=CC=C2N=C1,539.15,11,"[1, 6, 7]",3,True,CHN,aromatic
2766,3-Pyridinemethanol,C1=CC(=CN=C1)CO,539.15,6,"[1, 6, 7, 8]",4,True,CHON,aromatic
2767,7-Methylindole,CC1=C2C(=CC=C1)C=CN2,539.15,9,"[1, 6, 7]",3,True,CHN,aromatic
2768,3-Methylindole,CC1=CNC2=CC=CC=C12,539.15,9,"[1, 6, 7]",3,True,CHN,aromatic
2769,Triethylenetetraamine,C(CNCCNCCN)N,539.65,6,"[1, 6, 7]",3,True,CHN,amine
2770,"Phenol, 3-(dimethylamino)-",CN(C)C1=CC(=CC=C1)O,539.65,8,"[1, 6, 7, 8]",4,True,CHON,alcohol
2771,"1h-Imidazole, 2-Methyl-",CC1=NC=CN1,540.15,4,"[1, 6, 7]",3,True,CHN,aromatic
2772,"2,4-Dimethyl-1h-Imidazole",CC1=CN=C(N1)C,540.15,5,"[1, 6, 7]",3,True,CHN,aromatic
2773,"1,4-Benzenediamine",C1=CC(=CC=C1N)N,540.15,6,"[1, 6, 7]",3,True,CHN,aromatic
2774,P-Aminoacetanilide,CC(=O)NC1=CC=C(C=C1)N,540.15,8,"[1, 6, 7, 8]",4,True,CHON,amide
2775,8-Quinolinol,C1=CC2=C(C(=C1)O)N=CC=C2,540.15,9,"[1, 6, 7, 8]",4,True,CHON,aromatic
2776,5-Methylindole,CC1=CC2=C(C=C1)NC=C2,540.15,9,"[1, 6, 7]",3,True,CHN,aromatic
2777,4-Methylindole,CC1=C2C=CNC2=CC=C1,540.15,9,"[1, 6, 7]",3,True,CHN,aromatic
2778,2-Benzyl-Piperidine,C1CCNC(C1)CC2=CC=CC=C2,540.65,12,"[1, 6, 7]",3,True,CHN,aromatic
2779,"Ethanol, 2-(ethylphenylamino)-",CCN(CCO)C1=CC=CC=C1,541.15,10,"[1, 6, 7, 8]",4,True,CHON,aromatic
2780,N-Phenyl-n-Propylacetamide,CCCN(C1=CC=CC=C1)C(=O)C,541.15,11,"[1, 6, 7, 8]",4,True,CHON,amide
2781,"6,8-Dimethylquinoline",CC1=CC(=C2C(=C1)C=CC=N2)C,541.65,11,"[1, 6, 7]",3,True,CHN,aromatic
2782,Diethanolamine,C(CO)NCCO,541.95,4,"[1, 6, 7, 8]",4,True,CHON,alcohol
2783,"Naphthalene, 1-Isocyanato-",C1=CC=C2C(=C1)C=CC=C2N=C=O,542.15,11,"[1, 6, 7, 8]",4,True,CHON,aromatic
2784,Indazole,C1=CC=C2C(=C1)C=NN2,542.15,7,"[1, 6, 7]",3,True,CHN,aromatic
2785,1-Methylaziridine,CN1CC1,300.65,3,"[1, 6, 7]",3,True,CHN,amine
2786,"Piperidine, 4-(phenylmethyl)-",C1CNCCC1CC2=CC=CC=C2,543.15,12,"[1, 6, 7]",3,True,CHN,aromatic
2787,Caprolactam,C1CCC(=O)NCC1,543.15,6,"[1, 6, 7, 8]",4,True,CHON,amide
2788,"2,5-Dimethoxyaniline",COC1=CC(=C(C=C1)OC)N,543.15,8,"[1, 6, 7, 8]",4,True,CHON,ester
2789,"1,3-Benzenediamine, N,n-Dimethyl-",CN(C)C1=CC=CC(=C1)N,543.15,8,"[1, 6, 7]",3,True,CHN,aromatic
2790,Nornicotine,C1CC(NC1)C2=CN=CC=C2,543.15,9,"[1, 6, 7]",3,True,CHN,aromatic
2791,1-Methylbenzotriazole,CN1C2=CC=CC=C2N=N1,543.65,7,"[1, 6, 7]",3,True,CHN,aromatic
2792,2-Phenylpyridine,C1=CC=C(C=C1)C2=CC=CC=N2,544.15,11,"[1, 6, 7]",3,True,CHN,aromatic
2793,Formanilide,C1=CC=C(C=C1)NC=O,544.15,7,"[1, 6, 7, 8]",4,True,CHON,aromatic
2794,"1h-Pyrrole, 2-Phenyl-",C1=CC=C(C=C1)C2=CC=CN2,545.15,10,"[1, 6, 7]",3,True,CHN,aromatic
2795,3-Phenylpyridine,C1=CC=C(C=C1)C2=CN=CC=C2,545.15,11,"[1, 6, 7]",3,True,CHN,aromatic
2796,2-Methylindole,CC1=CC2=CC=CC=C2N1,545.15,9,"[1, 6, 7]",3,True,CHN,aromatic
2797,"1h-Pyrazole, 3,5-Dimethyl-1-Phenyl-",CC1=CC(=NN1C2=CC=CC=C2)C,546.15,11,"[1, 6, 7]",3,True,CHN,aromatic
2798,4-Aminopyridine,C1=CN=CC=C1N,546.15,5,"[1, 6, 7]",3,True,CHN,aromatic
2799,"Benzenemethanol, 2-Amino-",C1=CC=C(C(=C1)CO)N,546.15,7,"[1, 6, 7, 8]",4,True,CHON,aromatic
2800,"1h-Pyrazole, 4,5-Dihydro-1-Phenyl-",C1CN(N=C1)C2=CC=CC=C2,546.15,9,"[1, 6, 7]",3,True,CHN,aromatic
2801,"Glycine, N-Phenyl-, Ethyl Ester",CCOC(=O)CNC1=CC=CC=C1,546.65,10,"[1, 6, 7, 8]",4,True,CHON,ester
2802,"2,2-Bipyridine",C1=CC=NC(=C1)C2=CC=CC=N2,546.65,10,"[1, 6, 7]",3,True,CHN,aromatic
2803,"2,6-Dimethylquinoline",CC1=CC2=C(C=C1)N=C(C=C2)C,546.65,11,"[1, 6, 7]",3,True,CHN,aromatic
2804,"2,5-Diaminotoluene",CC1=C(C=CC(=C1)N)N,546.65,7,"[1, 6, 7]",3,True,CHN,aromatic
2805,"Ethanol, 2,2'-(butylimino)bis-",CCCCN(CCO)CCO,548.15,8,"[1, 6, 7, 8]",4,True,CHON,alcohol
2806,Anabasine,C1CCNC(C1)C2=CN=CC=C2,549.15,10,"[1, 6, 7]",3,True,CHN,aromatic
2807,"Phenol, 3-(diethylamino)-",CCN(CC)C1=CC(=CC=C1)O,549.15,10,"[1, 6, 7, 8]",4,True,CHON,alcohol
2808,1-Phenyl-1h-Imidazole,C1=CC=C(C=C1)N2C=CN=C2,549.15,9,"[1, 6, 7]",3,True,CHN,aromatic
2809,2-Benzylpyridine,C1=CC=C(C=C1)CC2=CC=CC=N2,550.15,12,"[1, 6, 7]",3,True,CHN,aromatic
2810,"Benzenamine, 2,3,4,5,6-Pentamethyl-",CC1=C(C(=C(C(=C1C)C)N)C)C,550.65,11,"[1, 6, 7]",3,True,CHN,aromatic
2811,"1-Naphthalenamine, 5,6,7,8-Tetrahydro-",C1CCC2=C(C1)C=CC=C2N,552.15,10,"[1, 6, 7]",3,True,CHN,aromatic
2812,"Benzenamine, N-Cyclohexyl-",C1CCC(CC1)NC2=CC=CC=C2,552.15,12,"[1, 6, 7]",3,True,CHN,aromatic
2813,"Aniline, (p-Hexyl)-",CCCCCCC1=CC=C(C=C1)N,555.15,12,"[1, 6, 7]",3,True,CHN,aromatic