,Name,SMILES,Tb,C Atom,Atom,Count Unique Atom,Pass Screen,Atom2,Func. Group
3284,"N'-methylpropane-1,3-diamine",CNCCCN,411.65,4,"[1, 6, 7]",3,True,CHN,amine
3285,"2-nitroso-3,6-dihydrooxazine",C1C=CCON1N=O,413.02,4,"[1, 6, 7, 8]",4,True,CHON,alkene
3286,"butane-1,2-diamine",CCC(CN)N,413.15,4,"[1, 6, 7]",3,True,CHN,amine
3287,"1,3-oxazinan-2-one",C1CNC(=O)OC1,413.57,4,"[1, 6, 7, 8]",4,True,CHON,ester
3288,"3-nitroso-1,3-oxazinane",C1CN(COC1)N=O,413.86,4,"[1, 6, 7, 8]",4,True,CHON,ester
3289,2-nitrosooxazinane,C1CCON(C1)N=O,413.86,4,"[1, 6, 7, 8]",4,True,CHON,ester
3290,"1,4-dioxane-2,5-dione",C1C(=O)OCC(=O)O1,414.7,4,"[1, 6, 8]",3,True,CHO,ester
3291,"1,4-dioxane-2,3-dione",C1COC(=O)C(=O)O1,414.7,4,"[1, 6, 8]",3,True,CHO,ester
3292,N-methylaziridine-1-carboxamide,CNC(=O)N1CC1,414.74,4,"[1, 6, 7, 8]",4,True,CHON,amide
3293,2-ethoxyacetonitrile,CCOCC#N,415.62,4,"[1, 6, 7, 8]",4,True,CHON,ester
3294,ethyl N-(oxomethylidene)carbamate,CCOC(=O)N=C=O,416.01,4,"[1, 6, 7, 8]",4,True,CHON,ester
3295,(2-methyloxiran-2-yl)methanol,CC1(CO1)CO,417.23,4,"[1, 6, 8]",3,True,CHO,ester
3296,prop-2-enyl carbamate,C=CCOC(=O)N,418.55,4,"[1, 6, 7, 8]",4,True,CHON,ester
3297,2-hydroxyethyl N-methylcarbamate,CNC(=O)OCCO,419.15,4,"[1, 6, 7, 8]",4,True,CHON,ester
3298,N-methyl-N-nitrosopropanamide,CCC(=O)N(C)N=O,420.83,4,"[1, 6, 7, 8]",4,True,CHON,amide
3299,N-methyl-N-(2-oxopropyl)nitrous amide,CC(=O)CN(C)N=O,420.83,4,"[1, 6, 7, 8]",4,True,CHON,ketone
3300,(E)-but-2-enamide,C/C=C/C(=O)N,421.68,4,"[1, 6, 7, 8]",4,True,CHON,alkene
3301,(Z)-but-2-enamide,C/C=C\C(=O)N,421.68,4,"[1, 6, 7, 8]",4,True,CHON,alkene
3302,N-ethenyl-N-methylformamide,CN(C=C)C=O,422.15,4,"[1, 6, 7, 8]",4,True,CHON,amide
3303,1-amino-2-methylpropan-2-ol,CC(C)(CN)O,423.4,4,"[1, 6, 7, 8]",4,True,CHON,alcohol
3304,cyclopropanecarboxamide,C1CC1C(=O)N,424.26,4,"[1, 6, 7, 8]",4,True,CHON,amide
3305,"1-ethyl-1,2,4-triazole",CCN1C=NC=N1,424.96,4,"[1, 6, 7]",3,True,CHN,aromatic
3306,ethyl N-methyl-N-nitrosocarbamate,CCOC(=O)N(C)N=O,425.18,4,"[1, 6, 7, 8]",4,True,CHON,ester
3307,[methyl(nitroso)amino]methyl acetate,CC(=O)OCN(C)N=O,425.18,4,"[1, 6, 7, 8]",4,True,CHON,ester
3308,"2-hydrazinyl-N,N-dimethylethanamine",CN(C)CCNN,426.26,4,"[1, 6, 7]",3,True,CHN,amine
3309,but-3-ynoic acid,C#CCC(=O)O,426.75,4,"[1, 6, 8]",3,True,CHO,alkyne
3310,2-(oxiran-2-yl)acetonitrile,C1C(O1)CC#N,426.89,4,"[1, 6, 7, 8]",4,True,CHON,ester
3311,"oxolane-2,4-dione",C1C(=O)COC1=O,428.57,4,"[1, 6, 8]",3,True,CHO,ester
3312,but-2-enylhydrazine,CC=CCNN,430.15,4,"[1, 6, 7]",3,True,CHN,alkene
3313,"1,3-dioxolan-4-ylmethanol",C1C(OCO1)CO,431.15,4,"[1, 6, 8]",3,True,CHO,ester
3314,3-hydroxy-2-methylpropanal,CC(CO)C=O,431.52,4,"[1, 6, 8]",3,True,CHO,alcohol
3315,4-hydroxybutanal,C(CC=O)CO,431.96,4,"[1, 6, 8]",3,True,CHO,alcohol
3316,3-aminobutan-2-ol,CC(C(C)O)N,433.15,4,"[1, 6, 7, 8]",4,True,CHON,alcohol
3317,"1,1,3-trimethyl-3-nitrosourea",CN(C)C(=O)N(C)N=O,433.27,4,"[1, 6, 7, 8]",4,True,CHON,amide
3318,"butane-2,3-diamine",CC(C(C)N)N,435.3,4,"[1, 6, 7]",3,True,CHN,amine
3319,1-methylimidazolidin-2-one,CN1CCNC1=O,435.61,4,"[1, 6, 7, 8]",4,True,CHON,amide
3320,"1,3-dioxan-2-one",C1COC(=O)OC1,435.65,4,"[1, 6, 8]",3,True,CHO,ester
3321,"3-(methylideneamino)-1,3-oxazolidin-2-one",C=NN1CCOC1=O,438.12,4,"[1, 6, 7, 8]",4,True,CHON,ester
3322,2-ethoxyacetamide,CCOCC(=O)N,439.94,4,"[1, 6, 7, 8]",4,True,CHON,ester
3323,2-(methoxymethoxy)ethanol,COCOCCO,440.65,4,"[1, 6, 8]",3,True,CHO,ester
3324,2-methyl-3-oxopropanenitrile,CC(C=O)C#N,441.42,4,"[1, 6, 7, 8]",4,True,CHON,aldehyde
3325,"cyclobut-3-ene-1,2-dione",C1=CC(=O)C1=O,441.6,4,"[1, 6, 8]",3,True,CHO,aromatic
3326,"cyclobutane-1,3-dione",C1C(=O)CC1=O,442.44,4,"[1, 6, 8]",3,True,CHO,ketone
3327,"cyclobutane-1,2-dione",C1CC(=O)C1=O,442.44,4,"[1, 6, 8]",3,True,CHO,ketone
3328,3-(methylamino)propanenitrile,CNCCC#N,443.37,4,"[1, 6, 7]",3,True,CHN,amine
3329,2-(ethylamino)acetonitrile,CCNCC#N,443.37,4,"[1, 6, 7]",3,True,CHN,amine
3330,2-[2-(2-hydroxyethyl)hydrazinyl]ethanol,C(CO)NNCCO,444.15,4,"[1, 6, 7, 8]",4,True,CHON,alcohol
3331,2-methoxyethyl carbamate,COCCOC(=O)N,444.29,4,"[1, 6, 7, 8]",4,True,CHON,ester
3332,"but-2-yne-1,4-diamine",C(C#CCN)N,445.18,4,"[1, 6, 7]",3,True,CHN,alkyne
3333,pyrrolidin-3-ol,C1CNCC1O,447.13,4,"[1, 6, 7, 8]",4,True,CHON,alcohol
3334,pyrrol-1-amine,C1=CN(C=C1)N,447.4,4,"[1, 6, 7]",3,True,CHN,aromatic
3335,2-hydroperoxyoxolane,C1CC(OC1)OO,447.95,4,"[1, 6, 8]",3,True,CHO,ester
3336,3-hydroxyoxolan-2-one,C1COC(=O)C1O,448.26,4,"[1, 6, 8]",3,True,CHO,ester
3337,"1,1,2-trimethylguanidine",CN=C(N)N(C)C,452.65,4,"[1, 6, 7]",3,True,CHN,amine
3338,3-aminobutan-1-ol,CC(CCO)N,455.39,4,"[1, 6, 7, 8]",4,True,CHON,alcohol
3339,4-aminobutan-2-ol,CC(CCN)O,455.39,4,"[1, 6, 7, 8]",4,True,CHON,alcohol
3340,2-(2-aminoethoxy)ethanamine,C(COCCN)N,456.65,4,"[1, 6, 7, 8]",4,True,CHON,ester
3341,3-hydroxy-2H-furan-5-one,C1C(=CC(=O)O1)O,457.07,4,"[1, 6, 8]",3,True,CHO,ester
3342,3-methoxypropanoic acid,COCCC(=O)O,459.05,4,"[1, 6, 8]",3,True,CHO,carboxylic_acid
3343,N-ethyl-N-(2-hydroxyethyl)nitrous amide,CCN(CCO)N=O,459.14,4,"[1, 6, 7, 8]",4,True,CHON,alcohol
3344,"1-cyano-N,N-dimethylformamide",CN(C)C(=O)C#N,459.51,4,"[1, 6, 7, 8]",4,True,CHON,amide
3345,(E)-3-methoxyprop-2-enenitrile,CO/C=C/C#N,462.15,4,"[1, 6, 7, 8]",4,True,CHON,ester
3346,2-amino-2-methylpropanenitrile,CC(C)(C#N)N,462.5,4,"[1, 6, 7]",3,True,CHN,amine
3347,"5,5-dimethyl-1,3,4-oxadiazol-2-one",CC1(N=NC(=O)O1)C,462.88,4,"[1, 6, 7, 8]",4,True,CHON,ester
3348,1-methyl-3-[[methyl(nitroso)carbamoyl]amino]-1-nitrosourea,CN(C(=O)NNC(=O)N(C)N=O)N=O,463.15,4,"[1, 6, 7, 8]",4,True,CHON,amide
3349,prop-2-enylurea,C=CCNC(=O)N,464.37,4,"[1, 6, 7, 8]",4,True,CHON,alkene
3350,3-amino-2-methylpropanenitrile,CC(CN)C#N,465.29,4,"[1, 6, 7]",3,True,CHN,amine
3351,3-aminobutanenitrile,CC(CC#N)N,465.29,4,"[1, 6, 7]",3,True,CHN,amine
3352,"1,3-dioxan-5-ol",C1C(COCO1)O,466.95,4,"[1, 6, 8]",3,True,CHO,ester
3353,N-(2-aminoethyl)acetamide,CC(=O)NCCN,467.69,4,"[1, 6, 7, 8]",4,True,CHON,amide
3354,(E)-3-aminobut-2-enenitrile,C/C(=C\C#N)/N,469.77,4,"[1, 6, 7]",3,True,CHN,alkene
3355,1-nitrosopyrrolidin-3-ol,C1CN(CC1O)N=O,470.15,4,"[1, 6, 7, 8]",4,True,CHON,alcohol
3356,N-[[methyl(nitroso)amino]methyl]acetamide,CC(=O)NCN(C)N=O,471.0,4,"[1, 6, 7, 8]",4,True,CHON,amide
3357,3-ethyl-1-methyl-1-nitrosourea,CCNC(=O)N(C)N=O,471.0,4,"[1, 6, 7, 8]",4,True,CHON,amide
3358,1-ethyl-3-methyl-1-nitrosourea,CCN(C(=O)NC)N=O,471.0,4,"[1, 6, 7, 8]",4,True,CHON,amide
3359,3-oxobutanamide,CC(=O)CC(=O)N,471.39,4,"[1, 6, 7, 8]",4,True,CHON,amide
3360,"2-methylidenepropane-1,3-diol",C=C(CO)CO,472.04,4,"[1, 6, 8]",3,True,CHO,alkene
3361,cyclopropanecarbohydrazide,C1CC1C(=O)NN,474.43,4,"[1, 6, 7, 8]",4,True,CHON,amide
3362,"4-methyl-1,4-dihydropyrazol-5-one",CC1C=NNC1=O,475.63,4,"[1, 6, 7, 8]",4,True,CHON,amide
3363,ethyl 2-amino-2-oxoacetate,CCOC(=O)C(=O)N,475.74,4,"[1, 6, 7, 8]",4,True,CHON,ester
3364,"1-(1,2,4-triazol-1-yl)ethanone",CC(=O)N1C=NC=N1,478.83,4,"[1, 6, 7, 8]",4,True,CHON,aromatic
3365,"(E)-but-1-ene-1,4-diol",C(CO)/C=C/O,479.64,4,"[1, 6, 8]",3,True,CHO,alkene
3366,ethyl (1E)-N-hydroxyethanimidate,CCO/C(=N/O)/C,482.28,4,"[1, 6, 7, 8]",4,True,CHON,ester
3367,1-hydroxyethyl 2-hydroperoxyacetate,CC(O)OC(=O)COO,482.65,4,"[1, 6, 8]",3,True,CHO,ester
3368,1H-pyrimidin-2-one,C1=CNC(=O)N=C1,483.73,4,"[1, 6, 7, 8]",4,True,CHON,aromatic
3369,1H-pyrimidin-6-one,C1=CN=CNC1=O,483.73,4,"[1, 6, 7, 8]",4,True,CHON,aromatic
3370,N-(hydroxymethyl)prop-2-enamide,C=CC(=O)NCO,484.02,4,"[1, 6, 7, 8]",4,True,CHON,alkene
3371,"3-methyl-1,4-dihydropyrazol-5-one",CC1=NNC(=O)C1,485.28,4,"[1, 6, 7, 8]",4,True,CHON,amide
3372,"1,4-dioxan-2-one",C1COC(=O)CO1,486.15,4,"[1, 6, 8]",3,True,CHO,ester
3373,N-(2-hydroxyethyl)acetamide,CC(=O)NCCO,487.34,4,"[1, 6, 7, 8]",4,True,CHON,alcohol
3374,2-methylprop-2-enamide,CC(=C)C(=O)N,488.0,4,"[1, 6, 7, 8]",4,True,CHON,alkene
3375,N-(1-formamidoethyl)formamide,CC(NC=O)NC=O,488.34,4,"[1, 6, 7, 8]",4,True,CHON,amide
3376,1-nitroso-1-prop-2-enylurea,C=CCN(C(=O)N)N=O,490.04,4,"[1, 6, 7, 8]",4,True,CHON,alkene
3377,4-aminobutanamide,C(CC(=O)N)CN,490.05,4,"[1, 6, 7, 8]",4,True,CHON,amide
3378,3-oxobutanoic acid,CC(=O)CC(=O)O,490.5,4,"[1, 6, 8]",3,True,CHO,carboxylic_acid
3379,2-oxobutanoic acid,CCC(=O)C(=O)O,490.5,4,"[1, 6, 8]",3,True,CHO,carboxylic_acid
3380,2-methylidenepropanedinitrile,C=C(C#N)C#N,491.84,4,"[1, 6, 7]",3,True,CHN,alkene
3381,1-nitroso-1-propan-2-ylurea,CC(C)N(C(=O)N)N=O,492.92,4,"[1, 6, 7, 8]",4,True,CHON,amide
3382,(Z)-3-aminobut-2-enamide,C/C(=C/C(=O)N)/N,494.09,4,"[1, 6, 7, 8]",4,True,CHON,amide
3383,"pyrrole-2,5-dione",C1=CC(=O)NC1=O,494.42,4,"[1, 6, 7, 8]",4,True,CHON,alkene
3384,2-acetyloxyacetic acid,CC(=O)OCC(=O)O,494.85,4,"[1, 6, 8]",3,True,CHO,carboxylic_acid
3385,azetidine-2-carboxylic acid,C1CNC1C(=O)O,496.19,4,"[1, 6, 7, 8]",4,True,CHON,carboxylic_acid
3386,azetidine-3-carboxylic acid,C1C(CN1)C(=O)O,496.19,4,"[1, 6, 7, 8]",4,True,CHON,carboxylic_acid
3387,N-(cyanomethyl)acetamide,CC(=O)NCC#N,497.24,4,"[1, 6, 7, 8]",4,True,CHON,amide
3388,"N,N'-dimethyloxamide",CNC(=O)C(=O)NC,499.2,4,"[1, 6, 7, 8]",4,True,CHON,amide
3389,N'-acetylacetohydrazide,CC(=O)NNC(=O)C,499.2,4,"[1, 6, 7, 8]",4,True,CHON,amide
3390,(Z)-but-2-enedinitrile,C(=C\C#N)\C#N,499.44,4,"[1, 6, 7]",3,True,CHN,alkene
3391,"3-(hydroxymethyl)-1,1-dimethylurea",CN(C)C(=O)NCO,499.78,4,"[1, 6, 7, 8]",4,True,CHON,amide
3392,"butane-1,1-diol",CCCC(O)O,503.15,4,"[1, 6, 8]",3,True,CHO,alcohol
3393,"1-nitroso-1,3-diazinan-2-one",C1CNC(=O)N(C1)N=O,503.28,4,"[1, 6, 7, 8]",4,True,CHON,amide
3394,"1-methylimidazolidine-2,4-dione",CN1CC(=O)NC1=O,503.43,4,"[1, 6, 7, 8]",4,True,CHON,amide
3395,"3-methylimidazolidine-2,4-dione",CN1C(=O)CNC1=O,503.43,4,"[1, 6, 7, 8]",4,True,CHON,amide
3396,"2-methoxypropane-1,3-diol",COC(CO)CO,505.15,4,"[1, 6, 8]",3,True,CHO,ester
3397,2-amino-2-methylpropanoic acid,CC(C)(C(=O)O)N,505.93,4,"[1, 6, 7, 8]",4,True,CHON,carboxylic_acid
3398,2-hydroxy-2-methylpropanamide,CC(C)(C(=O)N)O,506.47,4,"[1, 6, 7, 8]",4,True,CHON,alcohol
3399,methyl N-(methoxycarbonylamino)carbamate,COC(=O)NNC(=O)OC,507.9,4,"[1, 6, 7, 8]",4,True,CHON,ester
3400,3-amino-2-methylpropanoic acid,CC(CN)C(=O)O,508.72,4,"[1, 6, 7, 8]",4,True,CHON,carboxylic_acid
3401,3-aminobutanoic acid,CC(CC(=O)O)N,508.72,4,"[1, 6, 7, 8]",4,True,CHON,carboxylic_acid
3402,2-aminobutanoic acid,CCC(C(=O)O)N,508.72,4,"[1, 6, 7, 8]",4,True,CHON,carboxylic_acid
3403,"1-(oxiran-2-yl)ethane-1,2-diol",C1C(O1)C(CO)O,508.73,4,"[1, 6, 8]",3,True,CHO,ester
3404,4-aminobutanoic acid,C(CC(=O)O)CN,509.16,4,"[1, 6, 7, 8]",4,True,CHON,carboxylic_acid
3405,4-hydroxybutanamide,C(CC(=O)N)CO,509.7,4,"[1, 6, 7, 8]",4,True,CHON,alcohol
3406,3-[methyl(nitroso)amino]propanoic acid,CN(CCC(=O)O)N=O,512.47,4,"[1, 6, 7, 8]",4,True,CHON,alcohol
3407,"oxolane-3,4-diol",C1C(C(CO1)O)O,513.04,4,"[1, 6, 8]",3,True,CHO,ester
3408,2-aminoethyl 2-hydroxyacetate,C(COC(=O)CO)N,514.05,4,"[1, 6, 7, 8]",4,True,CHON,ester
3409,"methyl 2,3-dihydroxypropanoate",COC(=O)C(CO)O,514.65,4,"[1, 6, 8]",3,True,CHO,ester
3410,1-(2-methoxyethyl)-1-nitrosourea,COCCN(C(=O)N)N=O,515.78,4,"[1, 6, 7, 8]",4,True,CHON,ester
3411,1-aminocyclopropane-1-carboxylic acid,C1CC1(C(=O)O)N,516.14,4,"[1, 6, 7, 8]",4,True,CHON,carboxylic_acid
3412,2-amino-3-methyl-4H-imidazol-5-one,CN1CC(=O)N=C1N,517.43,4,"[1, 6, 7, 8]",4,True,CHON,amine
3413,"3-(methylamino)propane-1,2-diol",CNCC(CO)O,520.15,4,"[1, 6, 7, 8]",4,True,CHON,alcohol
3414,2-acetamidoacetamide,CC(=O)NCC(=O)N,521.56,4,"[1, 6, 7, 8]",4,True,CHON,amide
3415,N-carbamoylpropanamide,CCC(=O)NC(=O)N,521.56,4,"[1, 6, 7, 8]",4,True,CHON,amide
3416,3-hydroxy-2-(hydroxymethyl)propanal,C(C(CO)C=O)O,523.7,4,"[1, 6, 8]",3,True,CHO,alcohol
3417,N-[methyl(nitroso)carbamoyl]acetamide,CC(=O)NC(=O)N(C)N=O,524.87,4,"[1, 6, 7, 8]",4,True,CHON,amide
3418,2-hydroxybut-3-enoic acid,C=CC(C(=O)O)O,525.05,4,"[1, 6, 8]",3,True,CHO,alkene
3419,ethyl N-carbamoylcarbamate,CCOC(=O)NC(=O)N,525.91,4,"[1, 6, 7, 8]",4,True,CHON,ester
3420,3-hydroxybutanoic acid,CC(CC(=O)O)O,528.37,4,"[1, 6, 8]",3,True,CHO,alcohol
3421,2-hydroxybutanoic acid,CCC(C(=O)O)O,528.37,4,"[1, 6, 8]",3,True,CHO,alcohol
3422,4-hydroxybutanoic acid,C(CC(=O)O)CO,528.81,4,"[1, 6, 8]",3,True,CHO,alcohol
3423,"3,5-dimethyl-1H-1,2,4-triazole",CC1=NC(=NN1)C,531.7,4,"[1, 6, 7]",3,True,CHN,aromatic
3424,2-(2-hydroxyethoxy)acetamide,C(COCC(=O)N)O,532.12,4,"[1, 6, 7, 8]",4,True,CHON,ester
3425,"1,2-dihydropyridazine-3,6-dione",C1=CC(=O)NNC1=O,533.15,4,"[1, 6, 7, 8]",4,True,CHON,aromatic
3426,1-hydroxycyclopropane-1-carboxylic acid,C1CC1(C(=O)O)O,535.79,4,"[1, 6, 8]",3,True,CHO,alcohol
3427,2-cyanopropanoic acid,CC(C#N)C(=O)O,538.27,4,"[1, 6, 7, 8]",4,True,CHON,alcohol
3428,"5-methylimidazolidine-2,4-dione",CC1C(=O)NC(=O)N1,539.14,4,"[1, 6, 7, 8]",4,True,CHON,amide
3429,2-acetamidoacetic acid,CC(=O)NCC(=O)O,540.67,4,"[1, 6, 7, 8]",4,True,CHON,carboxylic_acid
3430,"1,4-dioxane-2,3-diol",C1COC(C(O1)O)O,544.26,4,"[1, 6, 8]",3,True,CHO,ester
3431,2-(cyanomethylamino)acetonitrile,C(C#N)NCC#N,545.45,4,"[1, 6, 7]",3,True,CHN,amine
3432,"methyl N,N-bis(hydroxymethyl)carbamate",COC(=O)N(CO)CO,546.14,4,"[1, 6, 7, 8]",4,True,CHON,ester
3433,"1-hydroxypyrrole-2,5-dione",C1=CC(=O)N(C1=O)O,546.22,4,"[1, 6, 7, 8]",4,True,CHON,alkene
3434,"1-hydroxypyrrolidine-2,5-dione",C1CC(=O)N(C1=O)O,547.06,4,"[1, 6, 7, 8]",4,True,CHON,amide
3435,"2-aminobutane-1,3-diol",CC(C(CO)N)O,547.13,4,"[1, 6, 7, 8]",4,True,CHON,alcohol
3436,1-nitroso-1-(2-oxopropyl)urea,CC(=O)CN(C(=O)N)N=O,547.23,4,"[1, 6, 7, 8]",4,True,CHON,amide
3437,"1H-pyrimidine-2,4-dione",C1=CNC(=O)NC1=O,547.24,4,"[1, 6, 7, 8]",4,True,CHON,aromatic
3438,"piperazine-2,5-dione",C1C(=O)NCC(=O)N1,548.08,4,"[1, 6, 7, 8]",4,True,CHON,amide
3439,"1,3-diazinane-2,4-dione",C1CNC(=O)NC1=O,548.08,4,"[1, 6, 7, 8]",4,True,CHON,amide
3440,(E)-but-2-enediamide,C(=C/C(=O)N)\C(=O)N,548.08,4,"[1, 6, 7, 8]",4,True,CHON,alkene
3441,"N,N'-dimethyl-N,N'-dinitrosooxamide",CN(C(=O)C(=O)N(C)N=O)N=O,550.54,4,"[1, 6, 7, 8]",4,True,CHON,amide
3442,methyl 2-[carbamoyl(nitroso)amino]acetate,COC(=O)CN(C(=O)N)N=O,551.58,4,"[1, 6, 7, 8]",4,True,CHON,ester
3443,"4-ethyl-1,2,4-triazolidine-3,5-dione",CCN1C(=O)NNC1=O,551.98,4,"[1, 6, 7, 8]",4,True,CHON,aromatic
3444,but-2-ynediamide,C(#CC(=O)N)C(=O)N,552.92,4,"[1, 6, 7, 8]",4,True,CHON,alkyne
3445,methyl (NE)-N-methoxycarbonyliminocarbamate,COC(=O)/N=N/C(=O)OC,556.76,4,"[1, 6, 7, 8]",4,True,CHON,ester
3446,2-amino-3-(methylamino)propanoic acid,CNCC(C(=O)O)N,558.89,4,"[1, 6, 7, 8]",4,True,CHON,carboxylic_acid
3447,2-amino-N-hydroxybutanamide,CCC(C(=O)NO)N,559.43,4,"[1, 6, 7, 8]",4,True,CHON,amide
3448,2-[amino(2-hydroxyethyl)amino]ethanol,C(CO)N(CCO)N,560.45,4,"[1, 6, 7, 8]",4,True,CHON,alcohol
3449,"2-methyl-1,2,4-triazine-3,5-dione",CN1C(=O)NC(=O)C=N1,560.56,4,"[1, 6, 7, 8]",4,True,CHON,aromatic
3450,2-oxoimidazolidine-1-carboxamide,C1CN(C(=O)N1)C(=O)N,562.01,4,"[1, 6, 7, 8]",4,True,CHON,amide
3451,4-amino-4-oxobutanoic acid,C(CC(=O)O)C(=O)N,563.03,4,"[1, 6, 7, 8]",4,True,CHON,carboxylic_acid
3452,ethyl N'-cyanocarbamimidate,CCOC(=NC#N)N,564.71,4,"[1, 6, 7, 8]",4,True,CHON,ester
3453,(Z)-4-amino-4-oxobut-2-enoic acid,C(=C\C(=O)O)\C(=O)N,567.19,4,"[1, 6, 7, 8]",4,True,CHON,carboxylic_acid
3454,"2-(hydroxymethyl)propane-1,3-diol",C(C(CO)CO)O,567.22,4,"[1, 6, 8]",3,True,CHO,alcohol
3455,"1-nitroso-1,3-diazinane-2,4-dione",C1CN(C(=O)NC1=O)N=O,571.1,4,"[1, 6, 7, 8]",4,True,CHON,amide
3456,"1-methylimidazolidine-2,4,5-trione",CN1C(=O)C(=O)NC1=O,571.25,4,"[1, 6, 7, 8]",4,True,CHON,amide
3457,[2-(hydroxymethylamino)ethylamino]methanol,C(CNCO)NCO,575.82,4,"[1, 6, 7, 8]",4,True,CHON,alcohol
3458,"2,4-diaminobutanoic acid",C(CN)C(C(=O)O)N,581.25,4,"[1, 6, 7, 8]",4,True,CHON,carboxylic_acid
3459,2-methylpropanedioic acid,CC(C(=O)O)C(=O)O,581.7,4,"[1, 6, 8]",3,True,CHO,alcohol
3460,2-hydroxyethyl N-(hydroxymethyl)carbamate,C(COC(=O)NCO)O,583.87,4,"[1, 6, 7, 8]",4,True,CHON,ester
3461,1-(3-hydroxypropyl)-1-nitrosourea,C(CN(C(=O)N)N=O)CO,585.54,4,"[1, 6, 7, 8]",4,True,CHON,alcohol
3462,but-2-ynedioic acid,C(#CC(=O)O)C(=O)O,591.14,4,"[1, 6, 8]",3,True,CHO,alkyne
3463,(2S)-2-amino-3-hydroxy-2-methylpropanoic acid,C[C@](CO)(C(=O)O)N,598.11,4,"[1, 6, 7, 8]",4,True,CHON,carboxylic_acid
3464,(2R)-2-amino-3-hydroxy-2-methylpropanoic acid,C[C@@](CO)(C(=O)O)N,598.11,4,"[1, 6, 7, 8]",4,True,CHON,carboxylic_acid
3465,2-amino-3-hydroxybutanoic acid,CC(C(C(=O)O)N)O,600.46,4,"[1, 6, 7, 8]",4,True,CHON,carboxylic_acid
3466,3-amino-4-hydroxybutanoic acid,C(C(CO)N)C(=O)O,600.9,4,"[1, 6, 7, 8]",4,True,CHON,carboxylic_acid
3467,4-amino-3-hydroxybutanoic acid,C(C(CN)O)C(=O)O,600.9,4,"[1, 6, 7, 8]",4,True,CHON,carboxylic_acid
3468,2-amino-4-hydroxybutanoic acid,C(CO)C(C(=O)O)N,600.9,4,"[1, 6, 7, 8]",4,True,CHON,carboxylic_acid
3469,2-hydroxybutanedioic acid,C(C(C(=O)O)O)C(=O)O,602.0,4,"[1, 6, 8]",3,True,CHO,alcohol
3470,2-[carbamimidoyl(methyl)amino]acetic acid,CN(CC(=O)O)C(=N)N,605.94,4,"[1, 6, 7, 8]",4,True,CHON,carboxylic_acid
3471,"3-(diaminomethylidene)-1,1-dimethylguanidine",CN(C)C(=N)N=C(N)N,609.52,4,"[1, 6, 7]",3,True,CHN,amine
3472,2-amino-3-cyanopropanoic acid,C(C#N)C(C(=O)O)N,610.8,4,"[1, 6, 7, 8]",4,True,CHON,carboxylic_acid
3473,2-[(2-aminoacetyl)amino]acetic acid,C(C(=O)NCC(=O)O)N,613.2,4,"[1, 6, 7, 8]",4,True,CHON,carboxylic_acid
3474,"1,3-diazinane-2,4,6-trione",C1C(=O)NC(=O)NC1=O,615.9,4,"[1, 6, 7, 8]",4,True,CHON,amide
3475,"1,3,4-trihydroxybutan-2-one",C(C(C(=O)CO)O)O,621.09,4,"[1, 6, 8]",3,True,CHO,alcohol
3476,N-carbamoyl-2-cyanoacetamide,C(C#N)C(=O)NC(=O)N,623.64,4,"[1, 6, 7, 8]",4,True,CHON,amide
3477,"5-oxo-1,4-dihydropyrazole-3-carboxylic acid",C1C(=NNC1=O)C(=O)O,630.79,4,"[1, 6, 7, 8]",4,True,CHON,carboxylic_acid
3478,2-(carboxymethylamino)acetic acid,C(C(=O)O)NCC(=O)O,632.31,4,"[1, 6, 7, 8]",4,True,CHON,carboxylic_acid
3479,2-oxobutanedioic acid,C(C(=O)C(=O)O)C(=O)O,636.01,4,"[1, 6, 8]",3,True,CHO,carboxylic_acid
3480,"(Z)-2,3-diaminobut-2-enedinitrile",C(#N)/C(=C(\C#N)/N)/N,644.26,4,"[1, 6, 7]",3,True,CHN,alkene
3481,butanedihydrazide,C(CC(=O)NN)C(=O)NN,644.26,4,"[1, 6, 7, 8]",4,True,CHON,amide
3482,2-aminobutanedioic acid,C(C(C(=O)O)N)C(=O)O,654.23,4,"[1, 6, 7, 8]",4,True,CHON,carboxylic_acid
3483,4-amino-2-hydroxy-4-oxobutanoic acid,C(C(C(=O)O)O)C(=O)N,654.77,4,"[1, 6, 7, 8]",4,True,CHON,carboxylic_acid
3484,2-[amino(carboxymethyl)amino]acetic acid,C(C(=O)O)N(CC(=O)O)N,667.11,4,"[1, 6, 7, 8]",4,True,CHON,alcohol
3485,2-hydroxy-2-methylpropanedioic acid,CC(C(=O)O)(C(=O)O)O,671.09,4,"[1, 6, 8]",3,True,CHO,alcohol
3486,"3,3-dimethylcyclopropene",CC1(C=C1)C,287.15,5,"[1, 6]",2,True,CH,alkene
3487,"penta-1,4-diyne",C#CCC#C,294.24,5,"[1, 6]",2,True,CH,alkyne
3488,1-(dimethylamino)propan-2-one,CC(=O)CN(C)C,304.75,5,"[1, 6, 7, 8]",4,True,CHON,ketone
3489,ethynylcyclopropane,C#CC1CC1,310.86,5,"[1, 6]",2,True,CH,alkyne
3490,ethenylcyclopropane,C=CC1CC1,313.58,5,"[1, 6]",2,True,CH,alkene
3491,1-methyl-2-methylidenecyclopropane,CC1CC1=C,319.9,5,"[1, 6]",2,True,CH,alkene
3492,"tricyclo[1.1.1.01,3]pentane",C1C23C1(C2)C3,322.29,5,"[1, 6]",2,True,CH,alkane
3493,bicyclo[2.1.0]pent-2-ene,C1C2C1C=C2,322.37,5,"[1, 6]",2,True,CH,alkene
3494,1-methylpyrrolidin-3-ol,CN1CCC(C1)O,323.15,5,"[1, 6, 7, 8]",4,True,CHON,alcohol
3495,3-methoxybut-1-ene,CC(C=C)OC,327.15,5,"[1, 6, 8]",3,True,CHO,ester
3496,3-methylidenecyclobutene,C=C1CC=C1,328.0,5,"[1, 6]",2,True,CH,alkene
3497,"1,2,2-trimethylaziridine",CC1(CN1C)C,329.15,5,"[1, 6, 7]",3,True,CHN,amine
3498,4-[methyl(nitroso)amino]butanoic acid,CN(CCCC(=O)O)N=O,330.65,5,"[1, 6, 7, 8]",4,True,CHON,alcohol
3499,(E)-1-methoxybut-1-en-3-yne,CO/C=C/C#C,330.7,5,"[1, 6, 8]",3,True,CHO,ester
3500,ethylidenecyclopropane,CC=C1CC1,332.05,5,"[1, 6]",2,True,CH,alkene
3501,"N,2-dimethylpropan-2-amine",CC(C)(C)NC,332.15,5,"[1, 6, 7]",3,True,CHN,amine
3502,2-methoxybut-1-ene,CCC(=C)OC,332.98,5,"[1, 6, 8]",3,True,CHO,ester
3503,2-ethoxyprop-1-ene,CCOC(=C)C,334.65,5,"[1, 6, 8]",3,True,CHO,ester
3504,(E)-1-ethenoxyprop-1-ene,C/C=C/OC=C,337.26,5,"[1, 6, 8]",3,True,CHO,ester