,Name,SMILES,Tb,C Atom,Atom,Count Unique Atom,Pass Screen,Atom2,Func. Group
1462,"3,5-Dimethylphenol",CC1=CC(=CC(=C1)O)C,494.84999999999997,8,"[1, 6, 8]",3,True,CHO,aromatic
1463,"1,2-Propanediol, 3-Ethoxy-",CCOCC(CO)O,495.15,5,"[1, 6, 8]",3,True,CHO,ester
1464,Valproic Acid,CCCC(CCC)C(=O)O,495.15,8,"[1, 6, 8]",3,True,CHO,alcohol
1465,"1,2-Propanedione, 1-Phenyl-",CC(=O)C(=O)C1=CC=CC=C1,495.15,9,"[1, 6, 8]",3,True,CHO,aromatic
1466,Heptanoic Acid,CCCCCCC(=O)O,495.34999999999997,7,"[1, 6, 8]",3,True,CHO,alcohol
1467,"Propanedioic Acid, 2-Propenyl-, Diethyl Ester",CCOC(=O)C(CC=C)C(=O)OCC,495.65,10,"[1, 6, 8]",3,True,CHO,ester
1468,Methyl Salicylate,COC(=O)C1=CC=CC=C1O,496.04999999999995,8,"[1, 6, 8]",3,True,CHO,ester
1469,"Benzenepropanal, 4-Methyl-",CC1=CC=C(C=C1)CCC=O,496.15,10,"[1, 6, 8]",3,True,CHO,aromatic
1470,O-t-Butylphenol,CC(C)(C)C1=CC=CC=C1O,496.15,10,"[1, 6, 8]",3,True,CHO,aromatic
1471,"Benzene, (butoxymethyl)-",CCCCOCC1=CC=CC=C1,496.15,11,"[1, 6, 8]",3,True,CHO,ester
1472,Di-n-Hexyl Ether,CCCCCCOCCCCCC,496.15,12,"[1, 6, 8]",3,True,CHO,ester
1473,"2,5-Furandione, 3,4-Dimethyl-",CC1=C(C(=O)OC1=O)C,496.15,6,"[1, 6, 8]",3,True,CHO,alkene
1474,Diethyl Maleate,CCOC(=O)/C=C\C(=O)OCC,496.15,8,"[1, 6, 8]",3,True,CHO,ester
1475,2-Hydroxy-4-Methylbenzaldehyde,CC1=CC(=C(C=C1)C=O)O,496.15,8,"[1, 6, 8]",3,True,CHO,aldehyde
1476,"1,1-Cyclobutanedicarboxylic Acid, Diethyl Ester",CCOC(=O)C1(CCC1)C(=O)OCC,497.15,10,"[1, 6, 8]",3,True,CHO,ester
1477,(+-)-Citronellol,CC(CCC=C(C)C)CCO,497.15,10,"[1, 6, 8]",3,True,CHO,alkene
1478,Methyl Decanoate,CCCCCCCCCC(=O)OC,497.15,11,"[1, 6, 8]",3,True,CHO,ester
1479,"Benzenemethanol, 2-Methyl-",CC1=CC=CC=C1CO,497.15,8,"[1, 6, 8]",3,True,CHO,aromatic
1480,Benzenepropanal,C1=CC=C(C=C1)CCC=O,497.15,9,"[1, 6, 8]",3,True,CHO,aromatic
1481,"Pentanoic Acid, 2-Acetyl-, Ethyl Ester",CCCC(C(=O)C)C(=O)OCC,497.15,9,"[1, 6, 8]",3,True,CHO,ester
1482,"2h-1-Benzopyran, 3,4-Dihydro-2-Methyl-",CC1CCC2=CC=CC=C2O1,497.65,10,"[1, 6, 8]",3,True,CHO,ester
1483,Dihydrocarveol,CC1CCC(CC1O)C(=C)C,497.65,10,"[1, 6, 8]",3,True,CHO,alkene
1484,"Butanoic Acid, Phenyl Ester",CCCC(=O)OC1=CC=CC=C1,498.15,10,"[1, 6, 8]",3,True,CHO,ester
1485,"2,6-Octadien-1-Ol, 3,7-Dimethyl-, (z)-",CC(=CCC/C(=C\CO)/C)C,498.15,10,"[1, 6, 8]",3,True,CHO,alkene
1486,6-Dodecanol,CCCCCCC(CCCCC)O,498.15,12,"[1, 6, 8]",3,True,CHO,alcohol
1487,Cekanoic C8 Acid,CC(C)CCCCC(=O)O,504.65,8,"[1, 6, 8]",3,True,CHO,alcohol
1488,"4-Nonanol, 2,6,8-Trimethyl-",CC(C)CC(C)CC(CC(C)C)O,498.54999999999995,12,"[1, 6, 8]",3,True,CHO,alcohol
1489,2-Isopropyl-6-Methylphenol,CC1=C(C(=CC=C1)C(C)C)O,498.65,10,"[1, 6, 8]",3,True,CHO,aromatic
1490,"Hexanoic Acid, 3-Methylbutyl Ester",CCCCCC(=O)OCCC(C)C,498.65,11,"[1, 6, 8]",3,True,CHO,ester
1491,"Butanoic Acid, Heptyl Ester",CCCCCCCOC(=O)CCC,498.95,11,"[1, 6, 8]",3,True,CHO,ester
1492,"2-Ethyl-2-Methyl-1,3-Propanediol",CCC(C)(CO)CO,498.95,6,"[1, 6, 8]",3,True,CHO,alcohol
1493,"2,4-Dimethylphenyl Acetate",CC1=CC(=C(C=C1)OC(=O)C)C,499.15,10,"[1, 6, 8]",3,True,CHO,ester
1494,"Hexanoic Acid, Pentyl Ester",CCCCCC(=O)OCCCCC,499.15,11,"[1, 6, 8]",3,True,CHO,ester
1495,Hept-6-Enoic Acid,C=CCCCCC(=O)O,499.15,7,"[1, 6, 8]",3,True,CHO,alkene
1496,P-Methylacetophenone,CC1=CC=C(C=C1)C(=O)C,499.15,9,"[1, 6, 8]",3,True,CHO,aromatic
1497,"2,3,6-Trimethylphenol",CC1=C(C(=C(C=C1)C)O)C,499.15,9,"[1, 6, 8]",3,True,CHO,aromatic
1498,Butyl Heptanoate,CCCCCCC(=O)OCCCC,499.34999999999997,11,"[1, 6, 8]",3,True,CHO,ester
1499,"Pentanoic Acid, Hexyl Ester",CCCCCCOC(=O)CCCC,499.45,11,"[1, 6, 8]",3,True,CHO,ester
1500,"Octanoic Acid, Propyl Ester",CCCCCCCC(=O)OCCC,499.54999999999995,11,"[1, 6, 8]",3,True,CHO,ester
1501,Hept-2-Enoic Acid,CCCC/C=C/C(=O)O,499.65,7,"[1, 6, 8]",3,True,CHO,alkene
1502,"Benzoic Acid, 2-Methyl-, Ethyl Ester",CCOC(=O)C1=CC=CC=C1C,500.15,10,"[1, 6, 8]",3,True,CHO,ester
1503,"Benzeneacetic Acid, Ethyl Ester",CCOC(=O)CC1=CC=CC=C1,500.15,10,"[1, 6, 8]",3,True,CHO,ester
1504,Citral,CC(=CCC/C(=C/C=O)/C)C,500.15,10,"[1, 6, 8]",3,True,CHO,alkene
1505,"Pentanoic Acid, Anhydride",CCCCC(=O)OC(=O)CCCC,500.15,10,"[1, 6, 8]",3,True,CHO,ether
1506,Undecan-5-One,CCCCCCC(=O)CCCC,500.15,11,"[1, 6, 8]",3,True,CHO,ketone
1507,3-Undecanone,CCCCCCCCC(=O)CC,500.15,11,"[1, 6, 8]",3,True,CHO,ketone
1508,Menthyl Acetate,CC1CCC(C(C1)OC(=O)C)C(C)C,500.15,12,"[1, 6, 8]",3,True,CHO,ester
1509,6-Hydroxy-Hexan-2-One,CC(=O)CCCCO,500.15,6,"[1, 6, 8]",3,True,CHO,alcohol
1510,"3,4-Dimethylphenol",CC1=C(C=C(C=C1)O)C,500.15,8,"[1, 6, 8]",3,True,CHO,aromatic
1511,2-Propoxy-Phenol,CCCOC1=CC=CC=C1O,500.15,9,"[1, 6, 8]",3,True,CHO,ester
1512,Ethyl Nonanoate,CCCCCCCCC(=O)OCC,500.15,11,"[1, 6, 8]",3,True,CHO,ester
1513,"Ethanone, 1-(2,4-Dimethylphenyl)-",CC1=CC(=C(C=C1)C(=O)C)C,501.15,10,"[1, 6, 8]",3,True,CHO,aromatic
1514,Dihydrosafrole,CCCC1=CC2=C(C=C1)OCO2,501.15,10,"[1, 6, 8]",3,True,CHO,ester
1515,O-Sec-Butylphenol,CCC(C)C1=CC=CC=C1O,501.15,10,"[1, 6, 8]",3,True,CHO,aromatic
1516,"Pentanoic Acid, 2-Furanylmethyl Ester",CCCCC(=O)OCC1=CC=CO1,501.15,10,"[1, 6, 8]",3,True,CHO,ester
1517,"2-Cyclohexen-1-Ol, 2-Methyl-5-(1-Methylethenyl)-",CC1=CCC(CC1O)C(=C)C,501.15,10,"[1, 6, 8]",3,True,CHO,alkene
1518,"Benzeneacetic Acid, .alpha.-Ethyl-, Methyl Ester",CCC(C1=CC=CC=C1)C(=O)OC,501.15,11,"[1, 6, 8]",3,True,CHO,ester
1519,6-Undecanone,CCCCCC(=O)CCCCC,501.15,11,"[1, 6, 8]",3,True,CHO,ketone
1520,"Propanoic Acid, Octyl Ester",CCCCCCCCOC(=O)CC,501.15,11,"[1, 6, 8]",3,True,CHO,ester
1521,6-Undecanol,CCCCCC(CCCCC)O,501.15,11,"[1, 6, 8]",3,True,CHO,alcohol
1522,"Cyclohexanol, 2-Phenyl-",C1CCC(C(C1)C2=CC=CC=C2)O,501.15,12,"[1, 6, 8]",3,True,CHO,aromatic
1523,Cyclopentaneacetic Acid,C1CCC(C1)CC(=O)O,501.15,7,"[1, 6, 8]",3,True,CHO,alcohol
1524,"Hexanoic Acid, 2-Ethyl-",CCCCC(CC)C(=O)O,501.15,8,"[1, 6, 8]",3,True,CHO,alcohol
1525,M-Isopropylphenol,CC(C)C1=CC(=CC=C1)O,501.15,9,"[1, 6, 8]",3,True,CHO,aromatic
1526,3-Propylphenol,CCCC1=CC(=CC=C1)O,501.15,9,"[1, 6, 8]",3,True,CHO,aromatic
1527,"Butanedioic Acid, Methylene-, Diethyl Ester",CCOC(=O)CC(=C)C(=O)OCC,501.15,9,"[1, 6, 8]",3,True,CHO,ester
1528,4-Oxo-Pentanoic Acid Isobutyl Ester,CC(C)COC(=O)CCC(=O)C,501.15,9,"[1, 6, 8]",3,True,CHO,ester
1529,"1-Butanone, 1-Phenyl-",CCCC(=O)C1=CC=CC=C1,501.65,10,"[1, 6, 8]",3,True,CHO,aromatic
1530,"Phenol, 4-Methyl-2-(1-Methylethyl)-",CC1=CC(=C(C=C1)O)C(C)C,501.65,10,"[1, 6, 8]",3,True,CHO,aromatic
1531,Oxalic Acid Diisobutyl Ester,CC(C)COC(=O)C(=O)OCC(C)C,502.15,10,"[1, 6, 8]",3,True,CHO,ester
1532,"Ethanol, 2-((2-Ethylhexyl)oxy)-",CCCCC(CC)COCCO,502.15,10,"[1, 6, 8]",3,True,CHO,ester
1533,Undecan-5-Ol,CCCCCCC(CCCC)O,502.15,11,"[1, 6, 8]",3,True,CHO,alcohol
1534,3-Furan-2-Yl-Propionic Acid,C1=COC(=C1)CCC(=O)O,502.15,7,"[1, 6, 8]",3,True,CHO,aromatic
1535,"1,4-Butanediol, Diacetate",CC(=O)OCCCCOC(=O)C,502.15,8,"[1, 6, 8]",3,True,CHO,ester
1536,"Benzene, 1-Butoxy-4-Methyl-",CCCCOC1=CC=C(C=C1)C,502.65,11,"[1, 6, 8]",3,True,CHO,ester
1537,"2-Propanone, 1-Phenoxy-",CC(=O)COC1=CC=CC=C1,502.65,9,"[1, 6, 8]",3,True,CHO,ester
1538,1-Phenyl-2-Butanone,CCC(=O)CC1=CC=CC=C1,503.15,10,"[1, 6, 8]",3,True,CHO,aromatic
1539,2-Methyl-4-Isopropylphenol,CC1=C(C=CC(=C1)C(C)C)O,503.15,10,"[1, 6, 8]",3,True,CHO,aromatic
1540,"Benzene, (2-Ethoxyethoxy)-",CCOCCOC1=CC=CC=C1,503.15,10,"[1, 6, 8]",3,True,CHO,ester
1541,2-Decenal,CCCCCCC/C=C/C=O,503.15,10,"[1, 6, 8]",3,True,CHO,alkene
1542,Geraniol,CC(=CCC/C(=C/CO)/C)C,503.15,10,"[1, 6, 8]",3,True,CHO,alkene
1543,"Phenol, 2-(1,1-Dimethylethyl)-6-Methyl-",CC1=C(C(=CC=C1)C(C)(C)C)O,503.15,11,"[1, 6, 8]",3,True,CHO,aromatic
1544,"Propanedioic Acid, Diethyl-, Diethyl Ester",CCC(CC)(C(=O)OCC)C(=O)OCC,503.15,11,"[1, 6, 8]",3,True,CHO,ester
1545,P-Isopropylphenol,CC(C)C1=CC=C(C=C1)O,503.15,9,"[1, 6, 8]",3,True,CHO,aromatic
1546,1-(2-Butoxyethoxy)-2-Propanol,CCCCOCCOCC(C)O,503.15,9,"[1, 6, 8]",3,True,CHO,ester
1547,"2,3,5-Trimethylphenol",CC1=CC(=C(C(=C1)O)C)C,503.65,9,"[1, 6, 8]",3,True,CHO,aromatic
1548,Carvone,CC1=CCC(CC1=O)C(=C)C,504.15,10,"[1, 6, 8]",3,True,CHO,alkene
1549,2-Furancarboxylic Acid,C1=COC(=C1)C(=O)O,504.15,5,"[1, 6, 8]",3,True,CHO,aromatic
1550,Diethylene Glycol Mono-n-Butyl Ether,CCCCOCCOCCO,504.15,8,"[1, 6, 8]",3,True,CHO,ester
1551,"Benzaldehyde, 3-Methoxy-",COC1=CC=CC(=C1)C=O,504.15,8,"[1, 6, 8]",3,True,CHO,ester
1552,1-Decanol,CCCCCCCCCCO,504.25,10,"[1, 6, 8]",3,True,CHO,alcohol
1553,Undecanone,CCCCCCCCCC(=O)C,504.65,11,"[1, 6, 8]",3,True,CHO,ketone
1554,2-Allyl-6-Methylphenol,CC1=C(C(=CC=C1)CC=C)O,505.15,10,"[1, 6, 8]",3,True,CHO,alkene
1555,4-Methylbenzoic Acid Ethyl Ester,CCOC(=O)C1=CC=C(C=C1)C,505.15,10,"[1, 6, 8]",3,True,CHO,ester
1556,"2,2,4-Trimethyl-1,3-Pentanediol",CC(C)C(C(C)(C)CO)O,505.15,8,"[1, 6, 8]",3,True,CHO,alcohol
1557,"2,4,5-Trimethylphenol",CC1=CC(=C(C=C1C)O)C,505.15,9,"[1, 6, 8]",3,True,CHO,aromatic
1558,"2,4-Dimethylbenzyl Alcohol",CC1=CC(=C(C=C1)CO)C,505.15,9,"[1, 6, 8]",3,True,CHO,aromatic
1559,"Propanedioic Acid, Acetyl-, Diethyl Ester",CCOC(=O)C(C(=O)C)C(=O)OCC,505.15,9,"[1, 6, 8]",3,True,CHO,ester
1560,"Ethanone, 1-(2,5-Dimethylphenyl)-",CC1=CC(=C(C=C1)C)C(=O)C,505.65,10,"[1, 6, 8]",3,True,CHO,aromatic
1561,"Benzoic Acid, 2,4-Dimethyl-, Methyl Ester",CC1=CC(=C(C=C1)C(=O)OC)C,505.65,10,"[1, 6, 8]",3,True,CHO,ester
1562,Cyclohexanecarboxylic Acid,C1CCC(CC1)C(=O)O,505.65,7,"[1, 6, 8]",3,True,CHO,alcohol
1563,Ethyl 2-Hydroxybenzoate,CCOC(=O)C1=CC=CC=C1O,505.65,9,"[1, 6, 8]",3,True,CHO,ester
1564,4-Propylphenol,CCCC1=CC=C(C=C1)O,505.75,9,"[1, 6, 8]",3,True,CHO,aromatic
1565,"1,1'-Oxydi-2-Propanol",CC(COCC(C)O)O,505.95,6,"[1, 6, 8]",3,True,CHO,ester
1566,Thymol,CC1=CC(=C(C=C1)C(C)C)O,506.15,10,"[1, 6, 8]",3,True,CHO,aromatic
1567,Piperitone,CC1=CC(=O)C(CC1)C(C)C,506.15,10,"[1, 6, 8]",3,True,CHO,alkene
1568,Furan-2-Carboxylic Acid Butyl Ester,CCCCOC(=O)C1=CC=CO1,506.15,9,"[1, 6, 8]",3,True,CHO,ester
1569,"2-Butanone, 4-Phenyl-",CC(=O)CCC1=CC=CC=C1,506.65,10,"[1, 6, 8]",3,True,CHO,aromatic
1570,Ethyl M-Methylbenzoate,CCOC(=O)C1=CC=CC(=C1)C,507.15,10,"[1, 6, 8]",3,True,CHO,ester
1571,"1,3-Propanediol, 2-Methyl-2-Propyl-",CCCC(C)(CO)CO,507.15,7,"[1, 6, 8]",3,True,CHO,alcohol
1572,1-Methylcyclohexanecarboxylic Acid,CC1(CCCCC1)C(=O)O,507.15,8,"[1, 6, 8]",3,True,CHO,alcohol
1573,"2(3h)-Furanone, 5-Butyldihydro-",CCCCC1CCC(=O)O1,507.15,8,"[1, 6, 8]",3,True,CHO,ester
1574,"2-Cyclopenten-1-One, 3-Phenyl-",C1CC(=O)C=C1C2=CC=CC=C2,507.34999999999997,11,"[1, 6, 8]",3,True,CHO,alkene
1575,Safrole,C=CCC1=CC2=C(C=C1)OCO2,507.65,10,"[1, 6, 8]",3,True,CHO,ester
1576,3-Cyclohexene-1-Carboxylic Acid,C1CC(CC=C1)C(=O)O,507.65,7,"[1, 6, 8]",3,True,CHO,alkene
1577,Anethole,C/C=C/C1=CC=C(C=C1)OC,508.15,10,"[1, 6, 8]",3,True,CHO,ester
1578,2-Butylphenol,CCCCC1=CC=CC=C1O,508.15,10,"[1, 6, 8]",3,True,CHO,aromatic
1579,"1,3-Diethoxybenzene",CCOC1=CC(=CC=C1)OCC,508.15,10,"[1, 6, 8]",3,True,CHO,ester
1580,Neryl Acetate,CC(=CCC/C(=C\COC(=O)C)/C)C,508.15,12,"[1, 6, 8]",3,True,CHO,ester
1581,"1,4-Butanediol",C(CCO)CO,508.15,4,"[1, 6, 8]",3,True,CHO,alcohol
1582,"2,3-Dihydroxy-Benzaldehyde",C1=CC(=C(C(=C1)O)O)C=O,508.15,7,"[1, 6, 8]",3,True,CHO,aldehyde
1583,"Benzoic Acid, 2-Hydroxy-3-Methyl-, Methyl Ester",CC1=C(C(=CC=C1)C(=O)OC)O,508.15,9,"[1, 6, 8]",3,True,CHO,ester
1584,3-Phenylpropanol,C1=CC=C(C=C1)CCCO,508.15,9,"[1, 6, 8]",3,True,CHO,aromatic
1585,"Benzene, 1,2,3-Trimethoxy-",COC1=C(C(=CC=C1)OC)OC,508.15,9,"[1, 6, 8]",3,True,CHO,ester
1586,"Benzaldehyde, 4-(1-Methylethyl)-",CC(C)C1=CC=C(C=C1)C=O,508.65,10,"[1, 6, 8]",3,True,CHO,aromatic
1587,3-Ethyl-5-Methylphenol,CCC1=CC(=CC(=C1)C)O,508.84999999999997,9,"[1, 6, 8]",3,True,CHO,aromatic
1588,1-(4-Methylphenyl)-1-Propanone,CCC(=O)C1=CC=C(C=C1)C,509.15,10,"[1, 6, 8]",3,True,CHO,aromatic
1589,9-Decen-1-Ol,C=CCCCCCCCCO,509.15,10,"[1, 6, 8]",3,True,CHO,alkene
1590,"Phenol, 2,3,4-Trimethyl-",CC1=C(C(=C(C=C1)O)C)C,509.15,9,"[1, 6, 8]",3,True,CHO,aromatic
1591,"1-Butanone, 3-Methyl-1-Phenyl-",CC(C)CC(=O)C1=CC=CC=C1,509.65,11,"[1, 6, 8]",3,True,CHO,aromatic
1592,"Phenol, 4-Ethyl-2-Methoxy-",CCC1=CC(=C(C=C1)O)OC,509.65,9,"[1, 6, 8]",3,True,CHO,ester
1593,Diethyl Glutarate,CCOC(=O)CCCC(=O)OCC,509.65,9,"[1, 6, 8]",3,True,CHO,ester
1594,"2(1h)-Naphthalenone, 3,4-Dihydro-",C1CC2=CC=CC=C2CC1=O,510.15,10,"[1, 6, 8]",3,True,CHO,aromatic
1595,2-Allyl-4-Methyl-Phenol,CC1=CC(=C(C=C1)O)CC=C,510.15,10,"[1, 6, 8]",3,True,CHO,alkene
1596,2-(tert-Butyl)-4-Methylphenol,CC1=CC(=C(C=C1)O)C(C)(C)C,510.15,11,"[1, 6, 8]",3,True,CHO,aromatic
1597,"2-Pentenedioic Acid, Diethyl Ester",CCOC(=O)C/C=C/C(=O)OCC,510.15,9,"[1, 6, 8]",3,True,CHO,ester
1598,"Propanedioic Acid, Butyl-, Diethyl Ester",CCCCC(C(=O)OCC)C(=O)OCC,510.65,11,"[1, 6, 8]",3,True,CHO,ester
1599,"Pentanoic Acid, 4-Oxo-, Butyl Ester",CCCCOC(=O)CCC(=O)C,510.65,9,"[1, 6, 8]",3,True,CHO,ester
1600,"Phenol, 2-Methyl-5-(1-Methylethyl)-",CC1=C(C=C(C=C1)C(C)C)O,510.84999999999997,10,"[1, 6, 8]",3,True,CHO,aromatic
1601,"Benzoic Acid, 2-Hydroxy-, 1-Methylethyl Ester",CC(C)OC(=O)C1=CC=CC=C1O,511.15,10,"[1, 6, 8]",3,True,CHO,ester
1602,2-Phenylethyl Propionate,CCC(=O)OCCC1=CC=CC=C1,511.15,11,"[1, 6, 8]",3,True,CHO,ester
1603,"Benzene, 1-(1,1-Dimethylethyl)-4-Methoxy-",CC(C)(C)C1=CC=C(C=C1)OC,511.15,11,"[1, 6, 8]",3,True,CHO,ester
1604,"2-Butyne-1,4-Diol",C(C#CCO)O,511.15,4,"[1, 6, 8]",3,True,CHO,alkyne
1605,4-(2-Propenyl)phenol,C=CCC1=CC=C(C=C1)O,511.15,9,"[1, 6, 8]",3,True,CHO,alkene
1606,"Benzaldehyde, 2,4,6-Trimethyl-",CC1=CC(=C(C(=C1)C)C=O)C,511.65,10,"[1, 6, 8]",3,True,CHO,aromatic
1607,"Benzoic Acid, 2-Hydroxy-, Propyl Ester",CCCOC(=O)C1=CC=CC=C1O,512.15,10,"[1, 6, 8]",3,True,CHO,ester
1608,2-Hydroxy-4-Phenylbutane,CC(CCC1=CC=CC=C1)O,512.15,10,"[1, 6, 8]",3,True,CHO,aromatic
1609,"Butanoic Acid, Phenylmethyl Ester",CCCC(=O)OCC1=CC=CC=C1,512.15,11,"[1, 6, 8]",3,True,CHO,ester
1610,"1,5-Pentanediol",C(CCO)CCO,512.15,5,"[1, 6, 8]",3,True,CHO,alcohol
1611,Octanoic Acid,CCCCCCCC(=O)O,512.15,8,"[1, 6, 8]",3,True,CHO,alcohol
1612,"Phenol, 2,3,4,6-Tetramethyl-",CC1=CC(=C(C(=C1C)C)O)C,513.15,10,"[1, 6, 8]",3,True,CHO,aromatic
1613,Perillaldehyde,CC(=C)C1CCC(=CC1)C=O,513.15,10,"[1, 6, 8]",3,True,CHO,alkene
1614,"Phenol, 3-(1,1-Dimethylethyl)-",CC(C)(C)C1=CC(=CC=C1)O,513.15,10,"[1, 6, 8]",3,True,CHO,aromatic
1615,"Butanoic Acid, 1,2-Ethanediyl Ester",CCCC(=O)OCCOC(=O)CCC,513.15,10,"[1, 6, 8]",3,True,CHO,ester
1616,"Benzene, (hexyloxy)-",CCCCCCOC1=CC=CC=C1,513.15,12,"[1, 6, 8]",3,True,CHO,ester
1617,Geraniol Acetate,CC(=CCC/C(=C/COC(=O)C)/C)C,513.15,12,"[1, 6, 8]",3,True,CHO,ester
1618,3-Hydroxybenzaldehyde,C1=CC(=CC(=C1)O)C=O,513.15,7,"[1, 6, 8]",3,True,CHO,aldehyde
1619,O-Hydroxyphenylacetic Acid,C1=CC=C(C(=C1)CC(=O)O)O,513.15,8,"[1, 6, 8]",3,True,CHO,carboxylic_acid
1620,M-Methoxyacetophenone,CC(=O)C1=CC(=CC=C1)OC,513.15,9,"[1, 6, 8]",3,True,CHO,ester
1621,3-Phenoxy-Propionic Acid,C1=CC=C(C=C1)OCCC(=O)O,513.15,9,"[1, 6, 8]",3,True,CHO,carboxylic_acid
1622,Butyl Octanoate,CCCCCCCC(=O)OCCCC,513.65,12,"[1, 6, 8]",3,True,CHO,ester
1623,"2,2-Diethyl-1,3-Propanediol",CCC(CC)(CO)CO,513.65,7,"[1, 6, 8]",3,True,CHO,alcohol
1624,P-(sec-Butyl)phenol,CCC(C)C1=CC=C(C=C1)O,514.15,10,"[1, 6, 8]",3,True,CHO,aromatic
1625,Dibutyl Oxalate,CCCCOC(=O)C(=O)OCCCC,514.15,10,"[1, 6, 8]",3,True,CHO,ester
1626,Hydroxycitronellal,CC(CCCC(C)(C)O)CC=O,514.15,10,"[1, 6, 8]",3,True,CHO,alcohol
1627,"Ethanone, 1-(2,4,6-Trimethylphenyl)-",CC1=CC(=C(C(=C1)C)C(=O)C)C,514.15,11,"[1, 6, 8]",3,True,CHO,aromatic
1628,1-Cyclohexene-1-Carboxylic Acid,C1CCC(=CC1)C(=O)O,514.15,7,"[1, 6, 8]",3,True,CHO,alkene
1629,"1,2-Benzenediol, 3-Methyl-",CC1=C(C(=CC=C1)O)O,514.15,7,"[1, 6, 8]",3,True,CHO,aromatic
1630,1-Phenoxy-2-Propanol,CC(COC1=CC=CC=C1)O,514.3499999999999,9,"[1, 6, 8]",3,True,CHO,ester
1631,Ethyl Decanoate,CCCCCCCCCC(=O)OCC,514.65,12,"[1, 6, 8]",3,True,CHO,ester
1632,"Benzoic Acid, 2-Methylpropyl Ester",CC(C)COC(=O)C1=CC=CC=C1,515.15,11,"[1, 6, 8]",3,True,CHO,ester
1633,Propylene Carbonate,CC1COC(=O)O1,515.15,4,"[1, 6, 8]",3,True,CHO,ester
1634,Dowanol Tpm,CC(CO)OC(C)COC(C)COC,515.55,10,"[1, 6, 8]",3,True,CHO,ester
1635,"Cyclohexane, 1,1'-Oxybis-",C1CCC(CC1)OC2CCCCC2,515.65,12,"[1, 6, 8]",3,True,CHO,ester
1636,1-Undecanol,CCCCCCCCCCCO,516.15,11,"[1, 6, 8]",3,True,CHO,alcohol
1637,2-Hydroxy-4-Methyl-Benzoic Acid Methyl Ester,CC1=CC(=C(C=C1)C(=O)OC)O,516.15,9,"[1, 6, 8]",3,True,CHO,ester
1638,"1h-Inden-1-One, 2,3-Dihydro-",C1CC(=O)C2=CC=CC=C21,516.15,9,"[1, 6, 8]",3,True,CHO,aromatic
1639,"Benzaldehyde, 2-Methoxy-",COC1=CC=CC=C1C=O,516.65,8,"[1, 6, 8]",3,True,CHO,ester
1640,"Benzeneethanol, 2-Methyl-",CC1=CC=CC=C1CCO,516.65,9,"[1, 6, 8]",3,True,CHO,aromatic
1641,"1-Cyclohexene-1-Methanol, 4-(1-Methylethenyl)-",CC(=C)C1CCC(=CC1)CO,517.15,10,"[1, 6, 8]",3,True,CHO,alkene
1642,Decyl Acetate,CCCCCCCCCCOC(=O)C,517.15,12,"[1, 6, 8]",3,True,CHO,ester
1643,M-Methoxyphenol,COC1=CC=CC(=C1)O,517.15,7,"[1, 6, 8]",3,True,CHO,ester
1644,"2-Ethyl-1,3-Hexandiol",CCCC(C(CC)CO)O,517.15,8,"[1, 6, 8]",3,True,CHO,alcohol
1645,"Benzene, 1,3-Dimethoxy-5-Methyl-",CC1=CC(=CC(=C1)OC)OC,517.15,9,"[1, 6, 8]",3,True,CHO,ester
1646,Texanol,CC(C)C(C(C)(C)COC(=O)C(C)C)O,518.65,12,"[1, 6, 8]",3,True,CHO,ester
1647,"Butanoic Acid, Octyl Ester",CCCCCCCCOC(=O)CCC,517.25,12,"[1, 6, 8]",3,True,CHO,ester
1648,"Benzoic Acid, 2-Hydroxy-5-Methyl-, Methyl Ester",CC1=CC(=C(C=C1)O)C(=O)OC,517.65,9,"[1, 6, 8]",3,True,CHO,ester
1649,"Benzeneethanol, 4-Methyl-",CC1=CC=C(C=C1)CCO,517.65,9,"[1, 6, 8]",3,True,CHO,aromatic
1650,Diethylene Glycol Monobutyl Ether Acetate,CCCCOCCOCCOC(=O)C,518.15,10,"[1, 6, 8]",3,True,CHO,ester
1651,"1-Pentanone, 1-Phenyl-",CCCCC(=O)C1=CC=CC=C1,518.15,11,"[1, 6, 8]",3,True,CHO,aromatic
1652,"Phenol, 5-Methyl-2-(1-Methylethyl)-, Acetate",CC1=CC(=C(C=C1)C(C)C)OC(=O)C,518.15,12,"[1, 6, 8]",3,True,CHO,ester
1653,"Butanoic Acid, 3-Methyl-, Phenylmethyl Ester",CC(C)CC(=O)OCC1=CC=CC=C1,518.15,12,"[1, 6, 8]",3,True,CHO,ester
1654,"2h-Pyran-2-One, 4,6-Dimethyl-",CC1=CC(=O)OC(=C1)C,518.15,7,"[1, 6, 8]",3,True,CHO,aromatic
1655,2-Phenoxyethanol,C1=CC=C(C=C1)OCCO,518.15,8,"[1, 6, 8]",3,True,CHO,ester
1656,Cyclohexylacetic Acid,C1CCC(CC1)CC(=O)O,518.15,8,"[1, 6, 8]",3,True,CHO,alcohol
1657,"Ethanone, 2-Methoxy-1-Phenyl-",COCC(=O)C1=CC=CC=C1,518.15,9,"[1, 6, 8]",3,True,CHO,ester
1658,"Ethanone, 1-(2-Hydroxy-4-Methylphenyl)-",CC1=CC(=C(C=C1)C(=O)C)O,518.15,9,"[1, 6, 8]",3,True,CHO,ketone
1659,Methyl Phenoxyacetate,COC(=O)COC1=CC=CC=C1,518.15,9,"[1, 6, 8]",3,True,CHO,ester
1660,"Pentanoic Acid, Heptyl Ester",CCCCCCCOC(=O)CCCC,518.3499999999999,12,"[1, 6, 8]",3,True,CHO,ester
1661,"Heptanoic Acid, Pentyl Ester",CCCCCCC(=O)OCCCCC,518.55,12,"[1, 6, 8]",3,True,CHO,ester
1662,Catechol,C1=CC=C(C(=C1)O)O,518.65,6,"[1, 6, 8]",3,True,CHO,aromatic
1663,"Benzaldehyde, 3-Ethoxy-",CCOC1=CC=CC(=C1)C=O,518.65,9,"[1, 6, 8]",3,True,CHO,ester
1664,Diethylene Glycol,C(COCCO)O,518.95,4,"[1, 6, 8]",3,True,CHO,ester
1665,"Benzene, 1,4-Diethoxy-",CCOC1=CC=C(C=C1)OCC,519.15,10,"[1, 6, 8]",3,True,CHO,ester
1666,"Hexanoic Acid, Hexyl Ester",CCCCCCOC(=O)CCCCC,519.15,12,"[1, 6, 8]",3,True,CHO,ester
1667,"1,4-Benzenedicarboxaldehyde",C1=CC(=CC=C1C=O)C=O,519.15,8,"[1, 6, 8]",3,True,CHO,aromatic
1668,3-Phenyl-2-Propenal,C1=CC=C(C=C1)/C=C/C=O,519.15,9,"[1, 6, 8]",3,True,CHO,alkene
1669,"Ethanone, 1-(3,4-Dimethylphenyl)-",CC1=C(C=C(C=C1)C(=O)C)C,519.65,10,"[1, 6, 8]",3,True,CHO,aromatic
1670,"Ethanone, 1-(2,4,5-Trimethylphenyl)-",CC1=CC(=C(C=C1C)C(=O)C)C,519.65,11,"[1, 6, 8]",3,True,CHO,aromatic
1671,Acetic Acid 5-Isopropyl-2-Methyl-Phenyl Ester,CC1=C(C=C(C=C1)C(C)C)OC(=O)C,519.65,12,"[1, 6, 8]",3,True,CHO,ester
1672,Methyl Decyl Ketone,CCCCCCCCCCC(=O)C,519.65,12,"[1, 6, 8]",3,True,CHO,ketone
1673,P-Ethoxyphenol,CCOC1=CC=C(C=C1)O,519.65,8,"[1, 6, 8]",3,True,CHO,ester
1674,"Benzoic Acid, 2-Methoxy-, Methyl Ester",COC1=CC=CC=C1C(=O)OC,519.65,9,"[1, 6, 8]",3,True,CHO,ester
1675,"1,3-Dioxane, 4-Phenyl-",C1COCOC1C2=CC=CC=C2,520.15,10,"[1, 6, 8]",3,True,CHO,ester
1676,"Phenol, 2,3,5,6-Tetramethyl-",CC1=CC(=C(C(=C1C)O)C)C,520.15,10,"[1, 6, 8]",3,True,CHO,aromatic
1677,"Benzeneacetic Acid, 2-Methylpropyl Ester",CC(C)COC(=O)CC1=CC=CC=C1,520.15,12,"[1, 6, 8]",3,True,CHO,ester