,Name,SMILES,Tb,C Atom,Atom,Count Unique Atom,Pass Screen,Atom2,Func. Group
6986,"2,3,5-trimethylcyclohexa-2,5-diene-1,4-dione",CC1=CC(=O)C(=C(C1=O)C)C,366.15,9,"[1, 6, 8]",3,True,CHO,alkene
6987,ethyl 1-methylpiperidine-2-carboxylate,CCOC(=O)C1CCCCN1C,367.15,9,"[1, 6, 7, 8]",4,True,CHON,ester
6988,1-benzofuran-2-carbaldehyde,C1=CC=C2C(=C1)C=C(O2)C=O,368.15,9,"[1, 6, 8]",3,True,CHO,aromatic
6989,"6,6-dimethylbicyclo[3.1.1]heptan-2-one",CC1(C2CCC(=O)C1C2)C,368.15,9,"[1, 6, 8]",3,True,CHO,ketone
6990,"(2E,6Z)-nona-2,6-dien-1-ol",CC/C=C\CC/C=C/CO,369.65,9,"[1, 6, 8]",3,True,CHO,alkene
6991,"nona-2,6-dien-1-ol",CCC=CCCC=CCO,373.15,9,"[1, 6, 8]",3,True,CHO,alkene
6992,(E)-non-2-enal,CCCCCC/C=C/C=O,374.15,9,"[1, 6, 8]",3,True,CHO,alkene
6993,"1-(furan-3-yl)pentane-1,4-dione",CC(=O)CCC(=O)C1=COC=C1,374.75,9,"[1, 6, 8]",3,True,CHO,aromatic
6994,non-3-yn-1-ol,CCCCCC#CCCO,376.4,9,"[1, 6, 8]",3,True,CHO,alkyne
6995,1-O-ethyl 4-O-(oxiran-2-ylmethyl) (Z)-but-2-enedioate,CCOC(=O)/C=C\C(=O)OCC1CO1,377.15,9,"[1, 6, 8]",3,True,CHO,ester
6996,"nonane-4,6-dione",CCCC(=O)CC(=O)CCC,377.65,9,"[1, 6, 8]",3,True,CHO,ketone
6997,ethyl spiro[2.3]hexane-2-carboxylate,CCOC(=O)C1CC12CCC2,378.15,9,"[1, 6, 8]",3,True,CHO,ester
6998,ethyl 2-oxocyclohexane-1-carboxylate,CCOC(=O)C1CCCCC1=O,379.65,9,"[1, 6, 8]",3,True,CHO,ester
6999,1-methoxy-4-(methoxymethyl)benzene,COCC1=CC=C(C=C1)OC,380.65,9,"[1, 6, 8]",3,True,CHO,ester
7000,"1-(2,6-dimethylpyridin-3-yl)ethanone",CC1=NC(=C(C=C1)C(=O)C)C,381.15,9,"[1, 6, 7, 8]",4,True,CHON,aromatic
7001,1-(furan-2-yl)pentan-1-one,CCCCC(=O)C1=CC=CO1,381.65,9,"[1, 6, 8]",3,True,CHO,aromatic
7002,1-ethoxy-4-isocyanatobenzene,CCOC1=CC=C(C=C1)N=C=O,383.15,9,"[1, 6, 7, 8]",4,True,CHON,ester
7003,N-(4-hydroxyphenyl)-N-methylacetamide,CC(=O)N(C)C1=CC=C(C=C1)O,383.83,9,"[1, 6, 7, 8]",4,True,CHON,amide
7004,3-(1H-pyrrol-2-yl)pyridine,C1=CC(=CN=C1)C2=CC=CN2,388.45,9,"[1, 6, 7]",3,True,CHN,aromatic
7005,"3,3-bis(ethenyl)penta-1,4-diene",C=CC(C=C)(C=C)C=C,389.01,9,"[1, 6]",2,True,CH,alkene
7006,"2-methyl-2,3-dihydro-1H-indole",CC1CC2=CC=CC=C2N1,389.15,9,"[1, 6, 7]",3,True,CHN,aromatic
7007,"2-benzyl-1,3,4-oxadiazole",C1=CC=C(C=C1)CC2=NN=CO2,393.15,9,"[1, 6, 7, 8]",4,True,CHON,aromatic
7008,3-(4-methoxyphenyl)-1-methyl-1-nitrosourea,CN(C(=O)NC1=CC=C(C=C1)OC)N=O,393.15,9,"[1, 6, 7, 8]",4,True,CHON,ester
7009,N-(6-acetamidopyridin-2-yl)acetamide,CC(=O)NC1=NC(=CC=C1)NC(=O)C,393.65,9,"[1, 6, 7, 8]",4,True,CHON,aromatic
7010,"2,4-dimethylheptan-3-one",CCCC(C)C(=O)C(C)C,396.15,9,"[1, 6, 8]",3,True,CHO,ketone
7011,4-propan-2-ylcyclohexan-1-ol,CC(C)C1CCC(CC1)O,396.15,9,"[1, 6, 8]",3,True,CHO,alcohol
7012,3-(2-ethylbutoxy)propanoic acid,CCC(CC)COCCC(=O)O,397.5,9,"[1, 6, 8]",3,True,CHO,carboxylic_acid
7013,"1,4,5,5-tetramethylcyclopenta-1,3-diene",CC1=CC=C(C1(C)C)C,398.15,9,"[1, 6]",2,True,CH,alkene
7014,"(2,3-dimethylphenyl)methanol",CC1=C(C(=CC=C1)CO)C,398.15,9,"[1, 6, 8]",3,True,CHO,aromatic
7015,2-propylbenzotriazole,CCCN1N=C2C=CC=CC2=N1,398.15,9,"[1, 6, 7]",3,True,CHN,aromatic
7016,"N,N-bis(prop-2-ynyl)propan-1-amine",CCCN(CC#C)CC#C,398.2,9,"[1, 6, 7]",3,True,CHN,alkyne
7017,"2,6-dimethylhepta-1,6-diene",CC(=C)CCCC(=C)C,398.64,9,"[1, 6]",2,True,CH,alkene
7018,"2,4,4-trimethylhex-1-ene",CCC(C)(C)CC(=C)C,398.85,9,"[1, 6]",2,True,CH,alkene
7019,4-methyl-3-propan-2-ylpent-3-en-1-yne,CC(C)C(=C(C)C)C#C,399.12,9,"[1, 6]",2,True,CH,alkene
7020,2-tert-butylperoxy-2-methylbutane,CCC(C)(C)OOC(C)(C)C,399.15,9,"[1, 6, 8]",3,True,CHO,ester
7021,"pentacyclo[4.3.0.02,5.03,8.04,7]nonane",C1C2C3C4C1C5C2C3C45,399.59,9,"[1, 6]",2,True,CH,alkane
7022,"pentacyclo[4.3.0.02,4.03,8.05,7]nonane",C1C2C3C4C1C5C2C5C34,399.59,9,"[1, 6]",2,True,CH,alkane
7023,"1,2,3,4-tetramethylcyclopentane",CC1CC(C(C1C)C)C,400.55,9,"[1, 6]",2,True,CH,alkane
7024,"2,4-dimethylhept-1-ene",CCCC(C)CC(=C)C,401.64,9,"[1, 6]",2,True,CH,alkene
7025,4-methyloct-1-ene,CCCCC(C)CC=C,401.76,9,"[1, 6]",2,True,CH,alkene
7026,2-cyano-2-cyclohexylideneacetic acid,C1CCC(=C(C#N)C(=O)O)CC1,402.65,9,"[1, 6, 7, 8]",4,True,CHON,alkene
7027,"(3E)-2,6-dimethylhepta-1,3,6-triene",CC(=C)C/C=C/C(=C)C,402.8,9,"[1, 6]",2,True,CH,alkene
7028,2-[2-(2-methoxyethoxy)ethoxy]ethyl acetate,CC(=O)OCCOCCOCCOC,403.15,9,"[1, 6, 8]",3,True,CHO,ester
7029,"ethyl N,N-dipropylcarbamate",CCCN(CCC)C(=O)OCC,403.15,9,"[1, 6, 7, 8]",4,True,CHON,ester
7030,"3-methylidenetetracyclo[3.3.0.02,8.04,6]octane",C=C1C2C3C2C4C1C4C3,405.22,9,"[1, 6]",2,True,CH,alkene
7031,"(3E)-3-ethyl-2-methylhexa-1,3-diene",CC/C=C(\CC)/C(=C)C,406.12,9,"[1, 6]",2,True,CH,alkene
7032,"(E)-2,2,4-trimethylhex-3-ene",CC/C(=C/C(C)(C)C)/C,406.33,9,"[1, 6]",2,True,CH,alkene
7033,"(3E)-nona-1,3-diene",CCCCC/C=C/C=C,406.36,9,"[1, 6]",2,True,CH,alkene
7034,"(E)-2,2-dimethylhept-3-ene",CCC/C=C/C(C)(C)C,406.45,9,"[1, 6]",2,True,CH,alkene
7035,"3,5,5-trimethylcyclohexene",CC1CC(CC=C1)(C)C,406.73,9,"[1, 6]",2,True,CH,alkene
7036,"3-ethyl-1,1-dimethylcyclopentane",CCC1CCC(C1)(C)C,407.15,9,"[1, 6]",2,True,CH,alkane
7037,(4-ethoxyphenyl)methanol,CCOC1=CC=C(C=C1)CO,407.65,9,"[1, 6, 8]",3,True,CHO,ester
7038,"1,1,4-trimethylcyclohexane",CC1CCC(CC1)(C)C,407.7,9,"[1, 6]",2,True,CH,alkane
7039,N-propyl-N-prop-2-ynylpropan-1-amine,CCCN(CCC)CC#C,408.08,9,"[1, 6, 7]",3,True,CHN,alkyne
7040,"(3E,5E,7E)-nona-3,5,7-trien-1-yne",C/C=C/C=C/C=C/C#C,408.12,9,"[1, 6]",2,True,CH,alkene
7041,(E)-non-2-enoic acid,CCCCCC/C=C/C(=O)O,408.15,9,"[1, 6, 8]",3,True,CHO,alkene
7042,"2,4-dimethylheptan-2-ol",CCCC(C)CC(C)(C)O,408.15,9,"[1, 6, 8]",3,True,CHO,alcohol
7043,(3-methylphenyl) N-methyl-N-nitrosocarbamate,CC1=CC(=CC=C1)OC(=O)N(C)N=O,408.35,9,"[1, 6, 7, 8]",4,True,CHON,ester
7044,"(E)-3,5-dimethylhept-3-ene",CCC(C)/C=C(\C)/CC,409.12,9,"[1, 6]",2,True,CH,alkene
7045,(E)-2-methyloct-3-ene,CCCC/C=C/C(C)C,409.24,9,"[1, 6]",2,True,CH,alkene
7046,"(E)-3,4-dimethylhept-3-ene",CCC/C(=C(\C)/CC)/C,409.44,9,"[1, 6]",2,True,CH,alkene
7047,(Z)-non-2-ene,CCCCCC/C=C\C,409.68,9,"[1, 6]",2,True,CH,alkene
7048,non-3-ene,CCCCCC=CCC,409.68,9,"[1, 6]",2,True,CH,alkene
7049,"tetracyclo[3.3.1.02,8.04,6]nonane",C1C2C3C2CC4C1C4C3,410.33,9,"[1, 6]",2,True,CH,alkane
7050,"tetracyclo[6.1.0.02,4.05,7]nonane",C1C2C1C3CC3C4C2C4,410.33,9,"[1, 6]",2,True,CH,alkane
7051,3-phenylprop-2-yn-1-ol,C1=CC=C(C=C1)C#CCO,410.65,9,"[1, 6, 8]",3,True,CHO,alkyne
7052,non-2-ene,CCCCCCC=CC,410.65,9,"[1, 6]",2,True,CH,alkene
7053,"4,4,5-trimethylhex-2-yne",CC#CC(C)(C)C(C)C,410.85,9,"[1, 6]",2,True,CH,alkyne
7054,"N,N-bis(prop-2-enyl)propan-2-amine",CC(C)N(CC=C)CC=C,410.88,9,"[1, 6, 7]",3,True,CHN,alkene
7055,2-methyloct-1-en-3-yne,CCCCC#CC(=C)C,411.08,9,"[1, 6]",2,True,CH,alkene
7056,"2-ethyl-1,1-dimethylcyclopentane",CCC1CCCC1(C)C,411.15,9,"[1, 6]",2,True,CH,alkane
7057,non-1-en-4-yne,CCCCC#CCC=C,411.2,9,"[1, 6]",2,True,CH,alkene
7058,non-1-en-3-yne,CCCCCC#CC=C,411.2,9,"[1, 6]",2,True,CH,alkene
7059,"5,5-dimethylhept-3-yne",CCC#CC(C)(C)CC,411.29,9,"[1, 6]",2,True,CH,alkyne
7060,"4,4-dimethylhept-2-yne",CCCC(C)(C)C#CC,411.29,9,"[1, 6]",2,True,CH,alkyne
7061,"1,1-dimethyl-2-(2-methylprop-1-enyl)cyclopropane",CC(=CC1CC1(C)C)C,411.87,9,"[1, 6]",2,True,CH,alkene
7062,"1-(1,3-benzodioxol-5-yl)ethanone",CC(=O)C1=CC2=C(C=C1)OCO2,412.15,9,"[1, 6, 8]",3,True,CHO,ester
7063,"N,N-di(propan-2-yl)propan-2-amine",CC(C)N(C(C)C)C(C)C,412.15,9,"[1, 6, 7]",3,True,CHN,amine
7064,"1,6-dimethyltricyclo[4.1.0.02,7]hept-3-ene",CC12CC=CC3C1C23C,412.17,9,"[1, 6]",2,True,CH,alkene
7065,4-(morpholin-4-ylmethyl)morpholine,C1COCCN1CN2CCOCC2,412.65,9,"[1, 6, 7, 8]",4,True,CHON,ester
7066,"2,6-dimethylhepta-2,5-diene",CC(=CCC=C(C)C)C,413.6,9,"[1, 6]",2,True,CH,alkene
7067,"(2E,4E)-nona-2,4-diene",CCCC/C=C/C=C/C,413.84,9,"[1, 6]",2,True,CH,alkene
7068,"2,3-dimethylbicyclo[2.2.1]heptane",CC1C(C2CCC1C2)C,413.93,9,"[1, 6]",2,True,CH,alkane
7069,7-methyloct-3-yne,CCC#CCCC(C)C,414.08,9,"[1, 6]",2,True,CH,alkyne
7070,"2,6-dimethylhepta-2,4-diene",CC(C)C=CC=C(C)C,414.15,9,"[1, 6]",2,True,CH,alkene
7071,N-tert-butyl-2-methylbut-3-en-2-amine,CC(C)(C)NC(C)(C)C=C,414.15,9,"[1, 6, 7]",3,True,CHN,alkene
7072,N-prop-2-enyl-N-propylpropan-1-amine,CCCN(CCC)CC=C,414.64,9,"[1, 6, 7]",3,True,CHN,alkene
7073,"8-methylidenetricyclo[3.2.1.02,4]oct-6-ene",C=C1C2C=CC1C3C2C3,415.12,9,"[1, 6]",2,True,CH,alkene
7074,"1,2,3-trimethylcyclohexane",CC1CCCC(C1C)C,415.15,9,"[1, 6]",2,True,CH,alkane
7075,methyl 4-cyanobenzoate,COC(=O)C1=CC=C(C=C1)C#N,415.15,9,"[1, 6, 7, 8]",4,True,CHON,ester
7076,"1,2,3,4-tetramethylcyclopenta-1,3-diene",CC1=C(C(=C(C1)C)C)C,415.15,9,"[1, 6]",2,True,CH,alkene
7077,(E)-7-methyloct-3-ene,CC/C=C/CCC(C)C,415.15,9,"[1, 6]",2,True,CH,alkene
7078,4-prop-1-en-2-ylphenol,CC(=C)C1=CC=C(C=C1)O,415.65,9,"[1, 6, 8]",3,True,CHO,alkene
7079,1-methyl-3-propan-2-ylcyclopentane,CC1CCC(C1)C(C)C,415.69,9,"[1, 6]",2,True,CH,alkane
7080,7-methyloct-2-ene,CC=CCCCC(C)C,415.7,9,"[1, 6]",2,True,CH,alkene
7081,"8-methylidenetricyclo[3.2.1.02,4]octane",C=C1C2CCC1C3C2C3,415.96,9,"[1, 6]",2,True,CH,alkene
7082,hexan-2-ylcyclopropane,CCCCC(C)C1CC1,416.1,9,"[1, 6]",2,True,CH,alkane
7083,1-methyl-2-propan-2-ylcyclopentane,CC1CCCC1C(C)C,416.15,9,"[1, 6]",2,True,CH,alkane
7084,"1,1,2,2-tetramethylcyclopentane",CC1(CCCC1(C)C)C,416.61,9,"[1, 6]",2,True,CH,alkane
7085,"1,3-dimethyltricyclo[4.1.0.02,7]hept-3-ene",CC1=CCC2C3C1C23C,416.91,9,"[1, 6]",2,True,CH,alkene
7086,N-tert-butyl-2-methylbutan-2-amine,CCC(C)(C)NC(C)(C)C,417.15,9,"[1, 6, 7]",3,True,CHN,amine
7087,2-benzamidooxyacetic acid,C1=CC=C(C=C1)C(=O)NOCC(=O)O,417.65,9,"[1, 6, 7, 8]",4,True,CHON,carboxylic_acid
7088,non-4-ene,CCCCC=CCCC,418.15,9,"[1, 6]",2,True,CH,alkene
7089,"3,4,4a,5,6,7,8,8a-octahydrochromen-2-one",C1CCC2C(C1)CCC(=O)O2,418.15,9,"[1, 6, 8]",3,True,CHO,ester
7090,2-(2-phenoxyethyl)guanidine,C1=CC=C(C=C1)OCCN=C(N)N,418.15,9,"[1, 6, 7, 8]",4,True,CHON,ester
7091,3-methyloct-2-ene,CCCCCC(=CC)C,418.15,9,"[1, 6]",2,True,CH,alkene
7092,5-ethylhept-4-en-2-yne,CCC(=CC#CC)CC,418.56,9,"[1, 6]",2,True,CH,alkene
7093,2-ethylbicyclo[2.2.1]heptane,CCC1CC2CCC1C2,418.6,9,"[1, 6]",2,True,CH,alkane
7094,(Z)-non-4-en-2-yne,CCCC/C=C\C#CC,418.68,9,"[1, 6]",2,True,CH,alkene
7095,(E)-non-4-en-2-yne,CCCC/C=C/C#CC,418.68,9,"[1, 6]",2,True,CH,alkene
7096,"7,7-dimethylbicyclo[2.2.1]heptane",CC1(C2CCC1CC2)C,418.84,9,"[1, 6]",2,True,CH,alkane
7097,1-methyl-1-propylcyclopentane,CCCC1(CCCC1)C,419.15,9,"[1, 6]",2,True,CH,alkane
7098,"tricyclo[3.2.2.02,4]nona-6,8-diene",C1C2C1C3C=CC2C=C3,419.39,9,"[1, 6]",2,True,CH,alkene
7099,"tricyclo[3.3.1.02,8]nona-3,6-diene",C1C2C=CC3C1C3C=C2,419.39,9,"[1, 6]",2,True,CH,alkene
7100,"tricyclo[4.2.1.02,5]nona-3,7-diene",C1C2C=CC1C3C2C=C3,419.39,9,"[1, 6]",2,True,CH,alkene
7101,"tricyclo[4.2.1.03,9]nona-4,7-diene",C1C2C=CC3C2C1C=C3,419.39,9,"[1, 6]",2,True,CH,alkene
7102,(E)-non-2-ene,CCCCCC/C=C/C,420.15,9,"[1, 6]",2,True,CH,alkene
7103,"tricyclo[3.2.2.02,4]non-6-ene",C1CC2C=CC1C3C2C3,420.23,9,"[1, 6]",2,True,CH,alkene
7104,"tricyclo[4.2.1.02,5]non-7-ene",C1CC2C1C3CC2C=C3,420.23,9,"[1, 6]",2,True,CH,alkene
7105,"tricyclo[4.2.1.02,5]non-3-ene",C1CC2CC1C3C2C=C3,420.23,9,"[1, 6]",2,True,CH,alkene
7106,"tricyclo[6.1.0.03,5]non-6-ene",C1C2CC2C=CC3C1C3,420.23,9,"[1, 6]",2,True,CH,alkene
7107,"tricyclo[6.1.0.02,4]non-5-ene",C1C=CC2CC2C3C1C3,420.23,9,"[1, 6]",2,True,CH,alkene
7108,1-ethyl-3-methylcyclohexane,CCC1CCCC(C1)C,420.4,9,"[1, 6]",2,True,CH,alkane
7109,"(2E,4E,6E)-7-(dimethylamino)hepta-2,4,6-trienal",CN(C)/C=C/C=C/C=C/C=O,420.43,9,"[1, 6, 7, 8]",4,True,CHON,aldehyde
7110,4-methyl-2-prop-1-en-2-yloxypent-1-ene,CC(C)CC(=C)OC(=C)C,420.62,9,"[1, 6, 8]",3,True,CHO,ester
7111,"5,6-dimethylidenebicyclo[2.2.1]hept-2-ene",C=C1C2CC(C1=C)C=C2,420.75,9,"[1, 6]",2,True,CH,alkene
7112,3-prop-2-enylcyclohexene,C=CCC1CCCC=C1,420.91,9,"[1, 6]",2,True,CH,alkene
7113,(5E)-5-ethylidenebicyclo[2.2.1]hept-2-ene,C/C=C/1\CC2CC1C=C2,420.92778,9,"[1, 6]",2,True,CH,alkene
7114,"tricyclo[3.2.2.02,4]nonane",C1CC2CCC1C3C2C3,421.07,9,"[1, 6]",2,True,CH,alkane
7115,"tricyclo[4.2.1.02,5]nonane",C1CC2CC1C3C2CC3,421.07,9,"[1, 6]",2,True,CH,alkane
7116,"tricyclo[6.1.0.02,4]nonane",C1CC2CC2C3CC3C1,421.07,9,"[1, 6]",2,True,CH,alkane
7117,"2,3-dimethylidenebicyclo[2.2.1]heptane",C=C1C2CCC(C2)C1=C,421.59,9,"[1, 6]",2,True,CH,alkene
7118,3-methylideneoct-1-ene,CCCCCC(=C)C=C,421.65,9,"[1, 6]",2,True,CH,alkene
7119,5-methylbicyclo[2.2.2]oct-2-ene,CC1CC2CCC1C=C2,422.03,9,"[1, 6]",2,True,CH,alkene
7120,"3,3-dimethyl-6-methylidenecyclohexa-1,4-diene",CC1(C=CC(=C)C=C1)C,422.79,9,"[1, 6]",2,True,CH,alkene
7121,"1,3-diethylcyclopentane",CCC1CCC(C1)CC,423.15,9,"[1, 6]",2,True,CH,alkane
7122,3-methyl-2-(2-methylpropoxy)but-1-ene,CC(C)COC(=C)C(C)C,423.62,9,"[1, 6, 8]",3,True,CHO,ester
7123,"1,1-diethylcyclopentane",CCC1(CCCC1)CC,423.65,9,"[1, 6]",2,True,CH,alkane
7124,"1,4-dimethylbicyclo[2.2.1]heptane",CC12CCC(C1)(CC2)C,423.75,9,"[1, 6]",2,True,CH,alkane
7125,3-propylcyclohexene,CCCC1CCCC=C1,424.23,9,"[1, 6]",2,True,CH,alkene
7126,4-propylcyclohexene,CCCC1CCC=CC1,424.23,9,"[1, 6]",2,True,CH,alkene
7127,"spiro[bicyclo[2.2.1]hepta-2,5-diene-7,1'-cyclopropane]",C1CC12C3C=CC2C=C3,424.3,9,"[1, 6]",2,True,CH,alkene
7128,"1,2-dimethylcycloheptane",CC1CCCCCC1C,424.67,9,"[1, 6]",2,True,CH,alkane
7129,"1,3-dimethylcycloheptane",CC1CCCCC(C1)C,424.67,9,"[1, 6]",2,True,CH,alkane
7130,1-[(2-methylpropan-2-yl)oxy]pentane,CCCCCOC(C)(C)C,424.71,9,"[1, 6, 8]",3,True,CHO,ester
7131,2-methoxy-2-methylheptane,CCCCCC(C)(C)OC,424.71,9,"[1, 6, 8]",3,True,CHO,ester
7132,trispiro[2.0.24.0.27.03]nonane,C1CC12C3(C24CC4)CC3,425.06,9,"[1, 6]",2,True,CH,alkane
7133,trispiro[2.0.0.25.14.13]nonane,C1CC12CC23CC34CC4,425.06,9,"[1, 6]",2,True,CH,alkane
7134,2-(3-methoxyphenyl)acetonitrile,COC1=CC=CC(=C1)CC#N,425.15,9,"[1, 6, 7, 8]",4,True,CHON,ester
7135,5-methylidenebicyclo[2.2.2]oct-2-ene,C=C1CC2CCC1C=C2,425.86,9,"[1, 6]",2,True,CH,alkene
7136,prop-2-ynylidenecyclohexane,C#CC=C1CCCCC1,426.5,9,"[1, 6]",2,True,CH,alkene
7137,propylidenecyclohexane,CCC=C1CCCCC1,426.65,9,"[1, 6]",2,True,CH,alkene
7138,"N,N-dimethyl-1,1-di(propan-2-yloxy)methanamine",CC(C)OC(N(C)C)OC(C)C,426.65,9,"[1, 6, 7, 8]",4,True,CHON,ester
7139,2-methylidenebicyclo[2.2.2]octane,C=C1CC2CCC1CC2,426.7,9,"[1, 6]",2,True,CH,alkene
7140,3-methylidenebicyclo[3.2.1]octane,C=C1CC2CCC(C2)C1,426.7,9,"[1, 6]",2,True,CH,alkene
7141,"7-ethylcyclohepta-1,3,5-triene",CCC1C=CC=CC=C1,426.82,9,"[1, 6]",2,True,CH,alkene
7142,"N,N-diethylpent-2-yn-1-amine",CCC#CCN(CC)CC,426.96,9,"[1, 6, 7]",3,True,CHN,alkyne
7143,"3,9-dimethyl-3,9-diazabicyclo[4.2.1]nonan-4-one",CN1CC2CCC(N2C)CC1=O,427.65,9,"[1, 6, 7, 8]",4,True,CHON,amide
7144,(E)-4-methyl-2-prop-1-en-2-yloxypent-2-ene,CC(C)/C=C(\C)/OC(=C)C,428.1,9,"[1, 6, 8]",3,True,CHO,ester
7145,2-amino-3-phenylpropan-1-ol,C1=CC=C(C=C1)CC(CO)N,428.15,9,"[1, 6, 7, 8]",4,True,CHON,aromatic
7146,"2,2,4,6-tetramethylpiperidine",CC1CC(NC(C1)(C)C)C,429.15,9,"[1, 6, 7]",3,True,CHN,amine
7147,1-(2-methylpropyl)cyclopentene,CC(C)CC1=CCCC1,429.17,9,"[1, 6]",2,True,CH,alkene
7148,"dispiro[2.0.24.33]nona-1,5-diene",C1CC2(C=C2)C3(C1)C=C3,429.21,9,"[1, 6]",2,True,CH,alkene
7149,"bicyclo[4.2.1]nona-2,4,7-triene",C1C2C=CC=CC1C=C2,429.29,9,"[1, 6]",2,True,CH,alkene
7150,"bicyclo[3.2.2]nona-2,6,8-triene",C1C=CC2C=CC1C=C2,429.29,9,"[1, 6]",2,True,CH,alkene
7151,"(2Z,4Z,6Z)-bicyclo[6.1.0]nona-2,4,6-triene",C1C/2C1/C=C\C=C/C=C2,429.29,9,"[1, 6]",2,True,CH,alkene
7152,"3a,4,7,7a-tetrahydro-1H-indene",C1C=CCC2C1CC=C2,430.13,9,"[1, 6]",2,True,CH,alkene
7153,"bicyclo[4.2.1]nona-2,4-diene",C1CC2CC1C=CC=C2,430.13,9,"[1, 6]",2,True,CH,alkene
7154,"bicyclo[3.2.2]nona-6,8-diene",C1CC2C=CC(C1)C=C2,430.13,9,"[1, 6]",2,True,CH,alkene
7155,"bicyclo[3.2.2]nona-2,6-diene",C1CC2C=CCC1C=C2,430.13,9,"[1, 6]",2,True,CH,alkene
7156,"1,2,4,4-tetramethylcyclopentene",CC1=C(CC(C1)(C)C)C,430.16,9,"[1, 6]",2,True,CH,alkene
7157,"N,N',N'-triethyl-N-methylethane-1,2-diamine",CCN(C)CCN(CC)CC,430.4,9,"[1, 6, 7]",3,True,CHN,amine
7158,4-ethynyl-1-azabicyclo[2.2.2]octane,C#CC12CCN(CC1)CC2,430.74,9,"[1, 6, 7]",3,True,CHN,alkyne
7159,dispiro[2.0.24.33]nonane,C1CC2(CC2)C3(C1)CC3,430.89,9,"[1, 6]",2,True,CH,alkane
7160,bicyclo[3.3.1]non-2-ene,C1CC2CC=CC(C1)C2,430.97,9,"[1, 6]",2,True,CH,alkene
7161,bicyclo[3.2.2]non-6-ene,C1CC2CCC(C1)C=C2,430.97,9,"[1, 6]",2,True,CH,alkene
7162,bicyclo[4.2.1]non-3-ene,C1CC2CC=CCC1C2,430.97,9,"[1, 6]",2,True,CH,alkene
7163,bicyclo[3.2.2]non-2-ene,C1CC2CCC1CC=C2,430.97,9,"[1, 6]",2,True,CH,alkene
7164,"3,5-dimethyl-2,3,5,6,7,8-hexahydro-1H-pyrrolizine",CC1CCC2N1C(CC2)C,431.04,9,"[1, 6, 7]",3,True,CHN,amine
7165,"1,1-dipropoxypropane",CCCOC(CC)OCCC,431.65,9,"[1, 6, 8]",3,True,CHO,ester
7166,2-methylbicyclo[2.2.2]oct-2-ene,CC1=CC2CCC1CC2,431.68,9,"[1, 6]",2,True,CH,alkene
7167,bicyclo[3.2.2]nonane,C1CC2CCC(C1)CC2,431.81,9,"[1, 6]",2,True,CH,alkane
7168,bicyclo[6.1.0]nonane,C1CCCC2CC2CC1,431.81,9,"[1, 6]",2,True,CH,alkane
7169,N-butyl-N-methylbutan-1-amine,CCCCN(C)CCCC,432.15,9,"[1, 6, 7]",3,True,CHN,amine
7170,(1Z)-3-methylcyclooctene,CC/1CCCCC/C=C1,432.77,9,"[1, 6]",2,True,CH,alkene
7171,prop-2-enylidenecyclohexane,C=CC=C1CCCCC1,433.06,9,"[1, 6]",2,True,CH,alkene
7172,"2,2,5-trimethylhexan-3-ol",CC(C)CC(C(C)(C)C)O,433.15,9,"[1, 6, 8]",3,True,CHO,alcohol
7173,2-methyl-1H-indol-5-amine,CC1=CC2=C(N1)C=CC(=C2)N,433.15,9,"[1, 6, 7]",3,True,CHN,aromatic
7174,"spiro[4.4]nona-1,3,6,8-tetraene",C1=CC2(C=C1)C=CC=C2,433.36,9,"[1, 6]",2,True,CH,alkene
7175,methylcyclooctane,CC1CCCCCCC1,433.61,9,"[1, 6]",2,True,CH,alkane
7176,1-(2-methylpropyl)piperidine,CC(C)CN1CCCCC1,433.65,9,"[1, 6, 7]",3,True,CHN,amine
7177,prop-1-ynylcyclohexane,CC#CC1CCCCC1,434.07,9,"[1, 6]",2,True,CH,alkyne
7178,"spiro[4.4]nona-1,3,8-triene",C1CC2(C=C1)C=CC=C2,434.2,9,"[1, 6]",2,True,CH,alkene
7179,"spiro[4.4]nona-1,3,7-triene",C1C=CCC12C=CC=C2,434.2,9,"[1, 6]",2,True,CH,alkene
7180,N-methyl-N-(4-methylphenyl)formamide,CC1=CC=C(C=C1)N(C)C=O,434.65,9,"[1, 6, 7, 8]",4,True,CHON,amide
7181,8-methyl-3-methylidene-8-azabicyclo[3.2.1]octane,CN1C2CCC1CC(=C)C2,434.87,9,"[1, 6, 7]",3,True,CHN,alkene
7182,"spiro[4.4]nona-1,3-diene",C1CCC2(C1)C=CC=C2,435.04,9,"[1, 6]",2,True,CH,alkene
7183,"2-phenyl-4,5-dihydro-1H-imidazole",C1CN=C(N1)C2=CC=CC=C2,435.15,9,"[1, 6, 7]",3,True,CHN,aromatic
7184,"6-ethenyl-3-oxatricyclo[3.2.1.02,4]octane",C=CC1CC2CC1C3C2O3,435.76,9,"[1, 6, 8]",3,True,CHO,ester
7185,spiro[4.4]non-3-ene,C1CCC2(C1)CCC=C2,435.88,9,"[1, 6]",2,True,CH,alkene
7186,4-methyl-3-propan-2-ylpent-1-yn-3-ol,CC(C)C(C#C)(C(C)C)O,436.15,9,"[1, 6, 8]",3,True,CHO,alkyne
7187,"3,3-dimethylbicyclo[3.2.0]hepta-1,4-diene",CC1(C=C2CCC2=C1)C,436.46,9,"[1, 6]",2,True,CH,alkene
7188,"7,8-dimethyl-7,8-diazatricyclo[4.2.1.02,5]non-3-ene",CN1C2CC(N1C)C3C2C=C3,436.57,9,"[1, 6, 7]",3,True,CHN,alkene
7189,"2,2,4,4-tetramethylcyclopentan-1-one",CC1(CC(=O)C(C1)(C)C)C,436.65,9,"[1, 6, 8]",3,True,CHO,ketone
7190,butan-2-yl 3-methylbutanoate,CCC(C)OC(=O)CC(C)C,436.9,9,"[1, 6, 8]",3,True,CHO,ester
7191,2-butyl-5-methylfuran,CCCCC1=CC=C(O1)C,437.15,9,"[1, 6, 8]",3,True,CHO,aromatic
7192,"(E)-1,1-diethoxypent-2-ene",CC/C=C/C(OCC)OCC,437.15,9,"[1, 6, 8]",3,True,CHO,ester
7193,4-ethenyl-2-methoxyphenol,COC1=C(C=CC(=C1)C=C)O,437.15,9,"[1, 6, 8]",3,True,CHO,ester
7194,1-[(E)-pent-2-en-3-yl]pyrrolidine,CC/C(=C\C)/N1CCCC1,437.8,9,"[1, 6, 7]",3,True,CHN,alkene
7195,"1-azatricyclo[3.3.1.13,7]decane",C1C2CC3CC1CN(C2)C3,438.18,9,"[1, 6, 7]",3,True,CHN,amine
7196,"3,4,4-trimethylhexan-3-ol",CCC(C)(C)C(C)(CC)O,438.65,9,"[1, 6, 8]",3,True,CHO,alcohol
7197,1-ethenoxyheptane,CCCCCCCOC=C,438.9,9,"[1, 6, 8]",3,True,CHO,ester
7198,prop-2-enyl 2-ethylbutanoate,CCC(CC)C(=O)OCC=C,439.15,9,"[1, 6, 8]",3,True,CHO,ester
7199,"5,5-dimethyl-2-propan-2-yl-1,3-dioxane",CC(C)C1OCC(CO1)(C)C,439.15,9,"[1, 6, 8]",3,True,CHO,ester
7200,3-(2-methylpiperidin-1-yl)propan-1-amine,CC1CCCCN1CCCN,439.65,9,"[1, 6, 7]",3,True,CHN,amine
7201,"2-ethyl-2,4-dimethylpentanal",CCC(C)(CC(C)C)C=O,439.65,9,"[1, 6, 8]",3,True,CHO,aldehyde
7202,methylcyclooctatetraene,CC1=CC=CC=CC=C1,439.9,9,"[1, 6]",2,True,CH,alkene
7203,9-methyl-9-azabicyclo[3.3.1]nonane,CN1C2CCCC1CCC2,439.98,9,"[1, 6, 7]",3,True,CHN,amine