,Name,SMILES,Tb,C Atom,Atom,Count Unique Atom,Pass Screen,Atom2,Func. Group
9419,"3,4,5-trimethyloctane",CCCC(C)C(C)C(C)CC,454.15,11,"[1, 6]",2,True,CH,alkane
9420,butyl 2-aminobenzoate,CCCCOC(=O)C1=CC=CC=C1N,455.15,11,"[1, 6, 7, 8]",4,True,CHON,ester
9421,"3,3-dimethylnonane",CCCCCCC(C)(C)CC,455.15,11,"[1, 6]",2,True,CH,alkane
9422,"4,5-dimethylnonane",CCCCC(C)C(C)CCC,455.15,11,"[1, 6]",2,True,CH,alkane
9423,"3,6-dimethylnonane",CCCC(C)CCC(C)CC,455.15,11,"[1, 6]",2,True,CH,alkane
9424,4-pentoxyaniline,CCCCCOC1=CC=C(C=C1)N,455.15,11,"[1, 6, 7, 8]",4,True,CHON,ester
9425,"3-ethyl-4,5-dimethylheptane",CCC(C)C(C)C(CC)CC,455.15,11,"[1, 6]",2,True,CH,alkane
9426,"2,3,3,4-tetramethylheptane",CCCC(C)C(C)(C)C(C)C,455.15,11,"[1, 6]",2,True,CH,alkane
9427,3-ethyl-2-methyloctane,CCCCCC(CC)C(C)C,455.15,11,"[1, 6]",2,True,CH,alkane
9428,6-ethyl-2-methyloctane,CCC(CC)CCCC(C)C,455.15,11,"[1, 6]",2,True,CH,alkane
9429,4-ethyl-3-methyloctane,CCCCC(CC)C(C)CC,455.15,11,"[1, 6]",2,True,CH,alkane
9430,3-ethyl-6-methyloctane,CCC(C)CCC(CC)CC,455.15,11,"[1, 6]",2,True,CH,alkane
9431,"2,3,3-trimethyloctane",CCCCCC(C)(C)C(C)C,455.15,11,"[1, 6]",2,True,CH,alkane
9432,"3,3,4-trimethyloctane",CCCCC(C)C(C)(C)CC,455.15,11,"[1, 6]",2,True,CH,alkane
9433,"3,4-diethylhept-3-ene",CCCC(=C(CC)CC)CC,455.2,11,"[1, 6]",2,True,CH,alkene
9434,undec-4-ene,CCCCCCC=CCCC,455.44,11,"[1, 6]",2,True,CH,alkene
9435,1-(4-hydroxyphenyl)pentan-1-one,CCCCC(=O)C1=CC=C(C=C1)O,455.65,11,"[1, 6, 8]",3,True,CHO,ketone
9436,"(3E)-4,8-dimethylnona-1,3,7-triene",CC(=CCC/C(=C/C=C)/C)C,456.04,11,"[1, 6]",2,True,CH,alkene
9437,"2,8-dimethylnonane",CC(C)CCCCCC(C)C,456.15,11,"[1, 6]",2,True,CH,alkane
9438,"4-ethyl-2,3,3-trimethylhexane",CCC(CC)C(C)(C)C(C)C,456.15,11,"[1, 6]",2,True,CH,alkane
9439,3-ethyl-4-methyloctane,CCCCC(C)C(CC)CC,456.15,11,"[1, 6]",2,True,CH,alkane
9440,"(3E,5E)-undeca-1,3,5-triene",CCCCC/C=C/C=C/C=C,456.28,11,"[1, 6]",2,True,CH,alkene
9441,undec-1-en-3-yne,CCCCCCCC#CC=C,456.96,11,"[1, 6]",2,True,CH,alkene
9442,"3,3-dimethylnon-4-yne",CCCCC#CC(C)(C)CC,457.05,11,"[1, 6]",2,True,CH,alkyne
9443,4-ethylnonane,CCCCCC(CC)CCC,457.15,11,"[1, 6]",2,True,CH,alkane
9444,"3,7-dimethylnonane",CCC(C)CCCC(C)CC,457.15,11,"[1, 6]",2,True,CH,alkane
9445,"3,3,4,4-tetramethylheptane",CCCC(C)(C)C(C)(C)CC,457.15,11,"[1, 6]",2,True,CH,alkane
9446,"2,2,3,3,4-pentamethylhexane",CCC(C)C(C)(C)C(C)(C)C,457.15,11,"[1, 6]",2,True,CH,alkane
9447,"3,3-dimethyl-8-methylidenetricyclo[3.2.1.02,4]octane",CC1(C2C1C3CCC2C3=C)C,457.29,11,"[1, 6]",2,True,CH,alkene
9448,octylcyclopropane,CCCCCCCCC1CC1,458.02,11,"[1, 6]",2,True,CH,alkane
9449,"3,4-dimethylnonane",CCCCCC(C)C(C)CC,458.15,11,"[1, 6]",2,True,CH,alkane
9450,"3-ethyl-3,4-dimethylheptane",CCCC(C)C(C)(CC)CC,458.15,11,"[1, 6]",2,True,CH,alkane
9451,"3,4,4,5-tetramethylheptane",CCC(C)C(C)(C)C(C)CC,458.15,11,"[1, 6]",2,True,CH,alkane
9452,5-methyldecane,CCCCCC(C)CCCC,459.15,11,"[1, 6]",2,True,CH,alkane
9453,"3,3-diethyl-2-methylhexane",CCCC(CC)(CC)C(C)C,459.15,11,"[1, 6]",2,True,CH,alkane
9454,"3,4-diethyl-3-methylhexane",CCC(CC)C(C)(CC)CC,459.15,11,"[1, 6]",2,True,CH,alkane
9455,"2,2,3,4,4-pentamethylhexane",CCC(C)(C)C(C)C(C)(C)C,459.15,11,"[1, 6]",2,True,CH,alkane
9456,"2,3,4-trimethyl-3-propan-2-ylpentane",CC(C)C(C)(C(C)C)C(C)C,459.15,11,"[1, 6]",2,True,CH,alkane
9457,"3-ethyl-2,2,3,4-tetramethylpentane",CCC(C)(C(C)C)C(C)(C)C,459.15,11,"[1, 6]",2,True,CH,alkane
9458,2-phenylethyl 3-hydroxypropanoate,C1=CC=C(C=C1)CCOC(=O)CCO,460.15,11,"[1, 6, 8]",3,True,CHO,ester
9459,"3-ethyl-2,3,4-trimethylhexane",CCC(C)C(C)(CC)C(C)C,460.15,11,"[1, 6]",2,True,CH,alkane
9460,"2,3,3,4,4-pentamethylhexane",CCC(C)(C)C(C)(C)C(C)C,460.15,11,"[1, 6]",2,True,CH,alkane
9461,"(3E,5Z,8Z)-undeca-1,3,5,8-tetraene",CC/C=C\C/C=C\C=C\C=C,460.44,11,"[1, 6]",2,True,CH,alkene
9462,1-tert-butyl-4-methylcyclohexane,CC1CCC(CC1)C(C)(C)C,460.88,11,"[1, 6]",2,True,CH,alkane
9463,3-ethylnonane,CCCCCCC(CC)CC,461.15,11,"[1, 6]",2,True,CH,alkane
9464,3-indol-1-ylpropanoic acid,C1=CC=C2C(=C1)C=CN2CCC(=O)O,461.65,11,"[1, 6, 7, 8]",4,True,CHON,aromatic
9465,"3,3-diethyl-2,2-dimethylpentane",CCC(CC)(CC)C(C)(C)C,462.15,11,"[1, 6]",2,True,CH,alkane
9466,"3,3-diethyl-2,4-dimethylpentane",CCC(CC)(C(C)C)C(C)C,462.15,11,"[1, 6]",2,True,CH,alkane
9467,"1,2-diethylspiro[2.4]hepta-4,6-diene",CCC1C(C12C=CC=C2)CC,462.92,11,"[1, 6]",2,True,CH,alkene
9468,3-methylbut-2-en-2-ylbenzene,CC(=C(C)C1=CC=CC=C1)C,463.15,11,"[1, 6]",2,True,CH,alkene
9469,(E)-1-[1-[(E)-but-2-enoxy]propoxy]but-2-ene,CCC(OC/C=C/C)OC/C=C/C,463.15,11,"[1, 6, 8]",3,True,CHO,ester
9470,"3,3-diethyl-4-methylhexane",CCC(C)C(CC)(CC)CC,463.15,11,"[1, 6]",2,True,CH,alkane
9471,"3-ethyl-3,4,4-trimethylhexane",CCC(C)(C)C(C)(CC)CC,463.15,11,"[1, 6]",2,True,CH,alkane
9472,"7-(1,3-dioxolan-2-ylmethyl)-1,3-dimethylpurine-2,6-dione",CN1C2=C(C(=O)N(C1=O)C)N(C=N2)CC3OCCO3,463.15,11,"[1, 6, 7, 8]",4,True,CHON,ester
9473,5-butylbicyclo[2.2.1]hept-2-ene,CCCCC1CC2CC1C=C2,463.52,11,"[1, 6]",2,True,CH,alkene
9474,"pentacyclo[5.3.1.02,4.02,5.04,9]undecane",C1C2CC3CC1C45C3(C4)C5C2,463.71,11,"[1, 6]",2,True,CH,alkane
9475,N-butyl-N-propylbutan-1-amine,CCCCN(CCC)CCCC,463.72,11,"[1, 6, 7]",3,True,CHN,amine
9476,N-methyl-N-pentylpentan-1-amine,CCCCCN(C)CCCCC,463.72,11,"[1, 6, 7]",3,True,CHN,amine
9477,2-methyldec-1-ene,CCCCCCCCC(=C)C,463.85,11,"[1, 6]",2,True,CH,alkene
9478,"1,7,7-trimethyl-2-methylidenebicyclo[2.2.1]heptane",CC1(C2CCC1(C(=C)C2)C)C,464.0,11,"[1, 6]",2,True,CH,alkene
9479,"8,9-dimethylidenetricyclo[3.2.2.02,4]non-6-ene",C=C1C2C=CC(C1=C)C3C2C3,464.31,11,"[1, 6]",2,True,CH,alkene
9480,"tetracyclo[6.2.1.02,7.03,5]undecane",C1CC2CC1C3C2C4CC4C3,464.63,11,"[1, 6]",2,True,CH,alkane
9481,"tetracyclo[5.3.1.02,5.04,9]undecane",C1C2CC3CC1C4CC3C4C2,464.63,11,"[1, 6]",2,True,CH,alkane
9482,pent-1-en-3-ylbenzene,CCC(C=C)C1=CC=CC=C1,464.65,11,"[1, 6]",2,True,CH,alkene
9483,"6,7-dimethylidenetricyclo[3.2.2.02,4]nonane",C=C1C2CCC(C1=C)C3C2C3,465.15,11,"[1, 6]",2,True,CH,alkene
9484,"5-butan-2-yl-5-ethyl-1-methyl-1,3-diazinane-2,4,6-trione",CCC(C)C1(C(=O)NC(=O)N(C1=O)C)CC,465.65,11,"[1, 6, 7, 8]",4,True,CHON,amide
9485,3-hexylcyclopentene,CCCCCCC1CCC=C1,465.72,11,"[1, 6]",2,True,CH,alkene
9486,2-methyladamantane,CC1C2CC3CC(C2)CC1C3,466.43,11,"[1, 6]",2,True,CH,alkane
9487,"4-methyltricyclo[5.2.1.02,6]decane",CC1CC2C3CCC(C3)C2C1,466.43,11,"[1, 6]",2,True,CH,alkane
9488,"10-methyltricyclo[5.2.1.02,6]decane",CC1C2CCC1C3C2CCC3,466.43,11,"[1, 6]",2,True,CH,alkane
9489,(E)-undec-3-ene,CCCCCCC/C=C/CC,466.65,11,"[1, 6]",2,True,CH,alkene
9490,"7-methoxy-3,7-dimethyloct-1-ene",CC(CCCC(C)(C)OC)C=C,466.71,11,"[1, 6, 8]",3,True,CHO,ester
9491,1-tert-butyl-4-methylidenecyclohexane,CC(C)(C)C1CCC(=C)CC1,466.76,11,"[1, 6]",2,True,CH,alkene
9492,2-(5-methoxy-1H-indol-3-yl)ethanol,COC1=CC2=C(C=C1)NC=C2CCO,467.15,11,"[1, 6, 7, 8]",4,True,CHON,ester
9493,"2,2,3,3,4,4-hexamethylpentane",CC(C)(C)C(C)(C)C(C)(C)C,467.15,11,"[1, 6]",2,True,CH,alkane
9494,"4-ethyl-2-methyl-2-(3-methylbutyl)-1,3-oxazolidine",CCC1COC(N1)(C)CCC(C)C,467.15,11,"[1, 6, 7, 8]",4,True,CHON,ester
9495,5-propan-2-ylbicyclo[2.2.2]oct-2-ene,CC(C)C1CC2CCC1C=C2,467.35,11,"[1, 6]",2,True,CH,alkene
9496,"8-propan-2-ylidenetricyclo[3.2.1.02,4]oct-6-ene",CC(=C1C2C=CC1C3C2C3)C,468.24,11,"[1, 6]",2,True,CH,alkene
9497,"8-propan-2-ylidenetricyclo[3.2.1.02,4]octane",CC(=C1C2CCC1C3C2C3)C,469.08,11,"[1, 6]",2,True,CH,alkene
9498,1-methyl-2-(2-methylpropyl)benzene,CC1=CC=CC=C1CC(C)C,469.15,11,"[1, 6]",2,True,CH,aromatic
9499,1-butan-2-yl-2-methylbenzene,CCC(C)C1=CC=CC=C1C,469.15,11,"[1, 6]",2,True,CH,aromatic
9500,"1,4-dimethyl-2-propan-2-ylbenzene",CC1=CC(=C(C=C1)C)C(C)C,469.35,11,"[1, 6]",2,True,CH,aromatic
9501,3-methyl-3-phenylbutan-2-ol,CC(C(C)(C)C1=CC=CC=C1)O,470.15,11,"[1, 6, 8]",3,True,CHO,aromatic
9502,2-methyl-3-phenylbutan-2-ol,CC(C1=CC=CC=C1)C(C)(C)O,470.15,11,"[1, 6, 8]",3,True,CHO,aromatic
9503,2-methylideneadamantane,C=C1C2CC3CC(C2)CC1C3,470.26,11,"[1, 6]",2,True,CH,alkene
9504,10-methoxydec-1-ene,COCCCCCCCCC=C,470.38,11,"[1, 6, 8]",3,True,CHO,ester
9505,2-methylbutylcyclohexane,CCC(C)CC1CCCCC1,470.39,11,"[1, 6]",2,True,CH,alkane
9506,2-(2-methyl-1H-indol-3-yl)ethanamine,CC1=C(C2=CC=CC=C2N1)CCN,471.15,11,"[1, 6, 7]",3,True,CHN,aromatic
9507,"N,N-diethylheptan-1-amine",CCCCCCCN(CC)CC,471.15,11,"[1, 6, 7]",3,True,CHN,amine
9508,1-methyladamantane,CC12CC3CC(C1)CC(C3)C2,471.34,11,"[1, 6]",2,True,CH,alkane
9509,"3,3,7,7-tetramethylcycloheptyne",CC1(CCCC(C#C1)(C)C)C,471.37,11,"[1, 6]",2,True,CH,alkyne
9510,1-propan-2-yloxyoctane,CCCCCCCCOC(C)C,471.7,11,"[1, 6, 8]",3,True,CHO,ester
9511,pent-1-ynylbenzene,CCCC#CC1=CC=CC=C1,472.15,11,"[1, 6]",2,True,CH,alkyne
9512,"1,3-dimethyl-2-propan-2-ylbenzene",CC1=C(C(=CC=C1)C)C(C)C,472.15,11,"[1, 6]",2,True,CH,aromatic
9513,"N,N,2,3-tetramethylbicyclo[2.2.1]heptan-2-amine",CC1C2CCC(C2)C1(C)N(C)C,472.37,11,"[1, 6, 7]",3,True,CHN,amine
9514,1-hexylcyclopentene,CCCCCCC1=CCCC1,473.15,11,"[1, 6]",2,True,CH,alkene
9515,undec-3-yne,CCCCCCCC#CCC,473.15,11,"[1, 6]",2,True,CH,alkyne
9516,N-(cyclohexylmethyl)-N-methylprop-2-yn-1-amine,CN(CC#C)CC1CCCCC1,473.39,11,"[1, 6, 7]",3,True,CHN,alkyne
9517,"1,2,3,5-tetramethyl-4-methylidenebicyclo[3.1.0]hex-2-ene",CC1=C(C2(CC2(C1=C)C)C)C,473.52,11,"[1, 6]",2,True,CH,alkene
9518,tetraspiro[2.0.0.0.26.15.14.13]undecane,C1CC12CC23CC34CC45CC5,473.53,11,"[1, 6]",2,True,CH,alkane
9519,1-pentoxyhexane,CCCCCCOCCCCC,473.7,11,"[1, 6, 8]",3,True,CHO,ester
9520,[(E)-pent-3-enyl]benzene,C/C=C/CCC1=CC=CC=C1,474.15,11,"[1, 6]",2,True,CH,alkene
9521,"tricyclo[4.3.1.12,5]undec-3-ene",C1CC2CC(C1)C3CC2C=C3,474.53,11,"[1, 6]",2,True,CH,alkene
9522,"2,5-dimethylidenebicyclo[4.2.1]non-7-ene",C=C1CCC(=C)C2CC1C=C2,475.05,11,"[1, 6]",2,True,CH,alkene
9523,[(E)-pent-2-en-2-yl]benzene,CC/C=C(\C)/C1=CC=CC=C1,475.15,11,"[1, 6]",2,True,CH,alkene
9524,"tricyclo[5.2.2.02,6]undecane",C1CC2C3CCC(C2C1)CC3,475.37,11,"[1, 6]",2,True,CH,alkane
9525,"tricyclo[5.3.1.02,6]undecane",C1CC2CC(C1)C3C2CCC3,475.37,11,"[1, 6]",2,True,CH,alkane
9526,"1,2-dicyclopropylethenylcyclopropane",C1CC1C=C(C2CC2)C3CC3,475.54,11,"[1, 6]",2,True,CH,alkene
9527,1-butan-2-yl-4-methylbenzene,CCC(C)C1=CC=C(C=C1)C,475.65,11,"[1, 6]",2,True,CH,aromatic
9528,5-ethynylnonan-5-ol,CCCCC(CCCC)(C#C)O,475.65,11,"[1, 6, 8]",3,True,CHO,alkyne
9529,"2,5-dimethylidenebicyclo[4.2.1]nonane",C=C1CCC(=C)C2CCC1C2,475.89,11,"[1, 6]",2,True,CH,alkene
9530,5-butoxy-5-methylhex-1-en-3-yne,CCCCOC(C)(C)C#CC=C,476.15,11,"[1, 6, 8]",3,True,CHO,ester
9531,"N,N,N',N'-tetraethylpropane-1,3-diamine",CCN(CC)CCCN(CC)CC,476.16,11,"[1, 6, 7]",3,True,CHN,amine
9532,"2-tert-butyl-2-azabicyclo[3.2.1]octa-3,6-diene",CC(C)(C)N1C=CC2CC1C=C2,476.56,11,"[1, 6, 7]",3,True,CHN,alkene
9533,hexyl 2-methylbutanoate,CCCCCCOC(=O)C(C)CC,476.65,11,"[1, 6, 8]",3,True,CHO,ester
9534,"1,1-diethoxyheptane",CCCCCCC(OCC)OCC,477.15,11,"[1, 6, 8]",3,True,CHO,ester
9535,"2-methyl-1,2,3,4,4a,5,6,7,8,8a-decahydronaphthalene",CC1CCC2CCCCC2C1,477.17,11,"[1, 6]",2,True,CH,alkane
9536,1-(aziridin-1-yl)nonan-1-one,CCCCCCCCC(=O)N1CC1,477.35,11,"[1, 6, 7, 8]",4,True,CHON,amide
9537,N-(3-methylbutyl)cyclohexanamine,CC(C)CCNC1CCCCC1,478.15,11,"[1, 6, 7]",3,True,CHN,amine
9538,"2,4-diethyl-1-methylbenzene",CCC1=CC(=C(C=C1)C)CC,478.15,11,"[1, 6]",2,True,CH,aromatic
9539,[2-hydroxy-3-(2-methylprop-2-enoyloxy)propyl] 2-methylprop-2-enoate,CC(=C)C(=O)OCC(COC(=O)C(=C)C)O,478.15,11,"[1, 6, 8]",3,True,CHO,ester
9540,"8a-methyl-2,3,4,4a,5,6,7,8-octahydro-1H-naphthalene",CC12CCCCC1CCCC2,478.15,11,"[1, 6]",2,True,CH,alkane
9541,2-tert-butyl-2-azabicyclo[3.2.1]octane,CC(C)(C)N1CCC2CCC1C2,478.24,11,"[1, 6, 7]",3,True,CHN,amine
9542,"2,2-dimethylpropylidenecyclohexane",CC(C)(C)C=C1CCCCC1,478.91,11,"[1, 6]",2,True,CH,alkene
9543,5-tert-butyl-2-methoxyaniline,CC(C)(C)C1=CC(=C(C=C1)OC)N,479.15,11,"[1, 6, 7, 8]",4,True,CHON,ester
9544,"1,2-dimethyl-2,3-dihydro-1H-indene",CC1CC2=CC=CC=C2C1C,479.15,11,"[1, 6]",2,True,CH,aromatic
9545,"3-[benzyl(methyl)amino]propane-1,2-diol",CN(CC1=CC=CC=C1)CC(CO)O,479.15,11,"[1, 6, 7, 8]",4,True,CHON,aromatic
9546,"hexyl 2,2-dimethylpropanoate",CCCCCCOC(=O)C(C)(C)C,479.45,11,"[1, 6, 8]",3,True,CHO,ester
9547,"6,7-dimethoxy-3,4-dihydroisoquinoline",COC1=C(C=C2C=NCCC2=C1)OC,479.65,11,"[1, 6, 7, 8]",4,True,CHON,ester
9548,nonan-5-yl acetate,CCCCC(CCCC)OC(=O)C,479.65,11,"[1, 6, 8]",3,True,CHO,ester
9549,"1,2-diethyl-3-methylbenzene",CCC1=CC=CC(=C1CC)C,479.75,11,"[1, 6]",2,True,CH,aromatic
9550,"1,3-dimethyl-2-propylbenzene",CCCC1=C(C=CC=C1C)C,480.75,11,"[1, 6]",2,True,CH,aromatic
9551,"3,11-dimethyl-3,11-diazatetracyclo[6.3.0.02,6.05,9]undecane",CN1CC2C3C1C4C(C3)C2CN4C,480.97,11,"[1, 6, 7]",3,True,CHN,amine
9552,"8a-methyl-2,3,4,4a,7,8-hexahydro-1H-naphthalene",CC12CCCCC1C=CCC2,481.24,11,"[1, 6]",2,True,CH,alkene
9553,"1,2-diethylspiro[2.4]hepta-1,4,6-triene",CCC1=C(C12C=CC=C2)CC,481.38,11,"[1, 6]",2,True,CH,alkene
9554,"(2Z)-1-methoxy-3,7-dimethylocta-2,6-diene",CC(=CCC/C(=C\COC)/C)C,481.78,11,"[1, 6, 8]",3,True,CHO,ester
9555,(1-methylcyclobutyl)benzene,CC1(CCC1)C2=CC=CC=C2,481.8,11,"[1, 6]",2,True,CH,aromatic
9556,"1,3-diethyl-2-methylbenzene",CCC1=C(C(=CC=C1)CC)C,481.95,11,"[1, 6]",2,True,CH,aromatic
9557,"2-ethenyl-1,3,5-trimethylbenzene",CC1=CC(=C(C(=C1)C)C=C)C,482.15,11,"[1, 6]",2,True,CH,alkene
9558,N-tert-butyl-1-phenylmethanimine,CC(C)(C)N=CC1=CC=CC=C1,482.15,11,"[1, 6, 7]",3,True,CHN,aromatic
9559,"3-ethyl-2-methyl-2-(3-methylbutyl)-1,3-oxazolidine",CCN1CCOC1(C)CCC(C)C,482.15,11,"[1, 6, 7, 8]",4,True,CHON,ester
9560,"tricyclo[5.3.1.01,7]undeca-2,4,9-triene",C1C=CC=CC23C1(C2)CC=C3,482.67,11,"[1, 6]",2,True,CH,alkene
9561,"bicyclo[4.4.1]undeca-2,4,7,9-tetraene",C1C2C=CC=CC1C=CC=C2,482.75,11,"[1, 6]",2,True,CH,alkene
9562,"diethyl cyclopentane-1,1-dicarboxylate",CCOC(=O)C1(CCCC1)C(=O)OCC,483.15,11,"[1, 6, 8]",3,True,CHO,ester
9563,4-tert-butyl-1-azabicyclo[2.2.2]octane,CC(C)(C)C12CCN(CC1)CC2,483.15,11,"[1, 6, 7]",3,True,CHN,amine
9564,"tricyclo[4.3.2.01,6]undeca-2,4-diene",C1CC23CCC2(C1)C=CC=C3,483.51,11,"[1, 6]",2,True,CH,alkene
9565,"tricyclo[4.4.1.01,6]undeca-3,8-diene",C1C=CCC23C1(C2)CC=CC3,483.51,11,"[1, 6]",2,True,CH,alkene
9566,"dispiro[2.0.24.53]undeca-1,5-diene",C1CCC2(C=C2)C3(CC1)C=C3,483.51,11,"[1, 6]",2,True,CH,alkene
9567,7-[(2-methylpropan-2-yl)oxy]bicyclo[2.2.1]heptane,CC(C)(C)OC1C2CCC1CC2,483.55,11,"[1, 6, 8]",3,True,CHO,ester
9568,"1,2-dimethyl-3-propylbenzene",CCCC1=CC=CC(=C1C)C,483.85,11,"[1, 6]",2,True,CH,aromatic
9569,2-methoxy-4-methyl-1-propan-2-ylbenzene,CC1=CC(=C(C=C1)C(C)C)OC,484.15,11,"[1, 6, 8]",3,True,CHO,ester
9570,3-methyl-1-(3-methylbutoxymethoxy)butane,CC(C)CCOCOCCC(C)C,484.15,11,"[1, 6, 8]",3,True,CHO,ester
9571,"tricyclo[4.3.2.01,6]undec-3-ene",C1CC23CCC2(C1)CC=CC3,484.35,11,"[1, 6]",2,True,CH,alkene
9572,3-tert-butyl-6-methoxycyclohexene,CC(C)(C)C1CCC(C=C1)OC,484.51,11,"[1, 6, 8]",3,True,CHO,ester
9573,N-benzyl-N-ethylethanamine,CCN(CC)CC1=CC=CC=C1,484.65,11,"[1, 6, 7]",3,True,CHN,aromatic
9574,"5-ethyl-1,2,3,4-tetramethylcyclopenta-1,3-diene",CCC1C(=C(C(=C1C)C)C)C,484.8,11,"[1, 6]",2,True,CH,alkene
9575,"1,2,3,4,5,5-hexamethylcyclopenta-1,3-diene",CC1=C(C(C(=C1C)C)(C)C)C,485.04,11,"[1, 6]",2,True,CH,alkene
9576,2-methylpropoxymethylbenzene,CC(C)COCC1=CC=CC=C1,485.15,11,"[1, 6, 8]",3,True,CHO,ester
9577,"1-ethyl-2,3-dihydro-1H-indene",CCC1CCC2=CC=CC=C12,485.15,11,"[1, 6]",2,True,CH,aromatic
9578,"1-(3-tricyclo[3.3.1.03,7]nonanyl)ethanone",CC(=O)C12CC3CC(C1)CC2C3,485.15,11,"[1, 6, 8]",3,True,CHO,ketone
9579,dispiro[2.0.24.53]undecane,C1CCC2(CC2)C3(CC1)CC3,485.19,11,"[1, 6]",2,True,CH,alkane
9580,cyclopent-2-en-1-ylcyclohexane,C1CCC(CC1)C2CCC=C2,485.27,11,"[1, 6]",2,True,CH,alkene
9581,9-propan-2-yl-9-azabicyclo[3.3.1]nonane,CC(C)N1C2CCCC1CCC2,485.3,11,"[1, 6, 7]",3,True,CHN,amine
9582,1-tert-butyl-4-methoxycyclohexane,CC(C)(C)C1CCC(CC1)OC,485.35,11,"[1, 6, 8]",3,True,CHO,ester
9583,1-methoxy-1-methyl-4-prop-1-en-2-ylcyclohexane,CC(=C)C1CCC(CC1)(C)OC,485.38,11,"[1, 6, 8]",3,True,CHO,ester
9584,9-propyl-9-azabicyclo[3.3.1]nonane,CCCN1C2CCCC1CCC2,485.74,11,"[1, 6, 7]",3,True,CHN,amine
9585,bicyclo[3.3.3]undecane,C1CC2CCCC(C1)CCC2,486.11,11,"[1, 6]",2,True,CH,alkane
9586,tert-butyl benzoate,CC(C)(C)OC(=O)C1=CC=CC=C1,486.15,11,"[1, 6, 8]",3,True,CHO,ester
9587,"1,4,7,7-tetramethylbicyclo[2.2.1]heptan-2-one",CC1(C2(CCC1(C(=O)C2)C)C)C,486.15,11,"[1, 6, 8]",3,True,CHO,ketone
9588,(Z)-4-[2-[(Z)-3-carboxyprop-2-enoyl]oxypropoxy]-4-oxobut-2-enoic acid,CC(COC(=O)/C=C\C(=O)O)OC(=O)/C=C\C(=O)O,486.37,11,"[1, 6, 8]",3,True,CHO,carboxylic_acid
9589,1-methoxydecane,CCCCCCCCCCOC,486.5,11,"[1, 6, 8]",3,True,CHO,ester
9590,1-methoxy-4-methyl-2-propan-2-ylbenzene,CC1=CC(=C(C=C1)OC)C(C)C,486.65,11,"[1, 6, 8]",3,True,CHO,ester
9591,methylcyclodecane,CC1CCCCCCCCC1,487.91,11,"[1, 6]",2,True,CH,alkane
9592,hexyl 3-methylbutanoate,CCCCCCOC(=O)CC(C)C,488.15,11,"[1, 6, 8]",3,True,CHO,ester
9593,"N,N-dimethylnonan-1-amine",CCCCCCCCCN(C)C,488.15,11,"[1, 6, 7]",3,True,CHN,amine
9594,"1-cyclopropyl-2,4-dimethylbenzene",CC1=CC(=C(C=C1)C2CC2)C,488.65,11,"[1, 6]",2,True,CH,aromatic
9595,"5-ethyl-1,2,3-trimethylbenzene",CCC1=CC(=C(C(=C1)C)C)C,488.95,11,"[1, 6]",2,True,CH,aromatic
9596,2-hydroxynaphthalene-1-carboxylic acid,C1=CC=C2C(=C1)C=CC(=C2C(=O)O)O,489.15,11,"[1, 6, 8]",3,True,CHO,carboxylic_acid
9597,2-methylpropyl N-phenylcarbamate,CC(C)COC(=O)NC1=CC=CC=C1,489.15,11,"[1, 6, 7, 8]",4,True,CHON,ester
9598,2-phenylpentan-2-ol,CCCC(C)(C1=CC=CC=C1)O,489.15,11,"[1, 6, 8]",3,True,CHO,aromatic
9599,"2-ethyl-1,3,4-trimethylbenzene",CCC1=C(C=CC(=C1C)C)C,489.75,11,"[1, 6]",2,True,CH,aromatic
9600,2-ethoxypropan-2-ylcyclohexane,CCOC(C)(C)C1CCCCC1,490.02,11,"[1, 6, 8]",3,True,CHO,ester
9601,[(E)-pent-1-enyl]benzene,CCC/C=C/C1=CC=CC=C1,490.15,11,"[1, 6]",2,True,CH,alkene
9602,2-methoxy-1-methyl-4-propan-2-ylbenzene,CC1=C(C=C(C=C1)C(C)C)OC,490.15,11,"[1, 6, 8]",3,True,CHO,ester
9603,propan-2-ylidenecyclooctane,CC(=C1CCCCCCC1)C,490.56,11,"[1, 6]",2,True,CH,alkene
9604,methylidenecyclodecane,C=C1CCCCCCCCC1,491.74,11,"[1, 6]",2,True,CH,alkene
9605,"tricyclo[5.2.2.02,6]undeca-2,5,8-triene",C1CC2C=CC1C3=CCC=C23,492.15,11,"[1, 6]",2,True,CH,alkene
9606,1-hexylpiperidine,CCCCCCN1CCCCC1,492.35,11,"[1, 6, 7]",3,True,CHN,amine
9607,1-(2-butoxypropan-2-yloxy)butane,CCCCOC(C)(C)OCCCC,492.89,11,"[1, 6, 8]",3,True,CHO,ester
9608,"2,2-dimethoxynonane",CCCCCCCC(C)(OC)OC,492.89,11,"[1, 6, 8]",3,True,CHO,ester
9609,"2-methyl-1,2,3,4-tetrahydronaphthalene",CC1CCC2=CC=CC=C2C1,493.15,11,"[1, 6]",2,True,CH,aromatic
9610,4-methoxybutylcyclohexane,COCCCCC1CCCCC1,493.25,11,"[1, 6, 8]",3,True,CHO,ester
9611,"1-ethyl-2,3,4-trimethylbenzene",CCC1=C(C(=C(C=C1)C)C)C,493.55,11,"[1, 6]",2,True,CH,aromatic
9612,2-heptyloxolane,CCCCCCCC1CCCO1,493.65,11,"[1, 6, 8]",3,True,CHO,ester
9613,diethoxymethylbenzene,CCOC(C1=CC=CC=C1)OCC,494.0,11,"[1, 6, 8]",3,True,CHO,ester
9614,3-ethoxypropylbenzene,CCOCCCC1=CC=CC=C1,494.15,11,"[1, 6, 8]",3,True,CHO,ester
9615,1-(pentoxymethoxy)pentane,CCCCCOCOCCCCC,494.75,11,"[1, 6, 8]",3,True,CHO,ester
9616,1-butoxy-2-methylbenzene,CCCCOC1=CC=CC=C1C,495.15,11,"[1, 6, 8]",3,True,CHO,ester
9617,3-methyl-2-phenylbutanal,CC(C)C(C=O)C1=CC=CC=C1,495.65,11,"[1, 6, 8]",3,True,CHO,aromatic
9618,1-(1-butoxypropoxy)butane,CCCCOC(CC)OCCCC,495.68,11,"[1, 6, 8]",3,True,CHO,ester
9619,cycloundecene,C1CCCC/C=C/CCCC1,496.01,11,"[1, 6]",2,True,CH,alkene
9620,cycloundecene,C1CCCC/C=C\CCCC1,496.01,11,"[1, 6]",2,True,CH,alkene
9621,"4,7-dimethyl-2,3-dihydro-1H-indene",CC1=C2CCCC2=C(C=C1)C,496.15,11,"[1, 6]",2,True,CH,aromatic
9622,undec-10-enal,C=CCCCCCCCCC=O,496.62,11,"[1, 6, 8]",3,True,CHO,alkene
9623,3-phenylpentan-3-ol,CCC(CC)(C1=CC=CC=C1)O,496.65,11,"[1, 6, 8]",3,True,CHO,aromatic
9624,"(Z)-8,8-dimethoxynon-3-ene",CC/C=C\CCCC(C)(OC)OC,497.05,11,"[1, 6, 8]",3,True,CHO,ester
9625,propan-2-yl 2-phenylacetate,CC(C)OC(=O)CC1=CC=CC=C1,497.15,11,"[1, 6, 8]",3,True,CHO,ester
9626,N-methyldecan-1-amine,CCCCCCCCCCNC,497.15,11,"[1, 6, 7]",3,True,CHN,amine
9627,N-ethyl-N-propan-2-ylaniline,CCN(C1=CC=CC=C1)C(C)C,497.15,11,"[1, 6, 7]",3,True,CHN,aromatic