,Name,SMILES,Tb,C Atom,Atom,Count Unique Atom,Pass Screen,Atom2,Func. Group
10195,1-(4-butoxyphenyl)ethanone,CCCCOC1=CC=C(C=C1)C(=O)C,445.15,12,"[1, 6, 8]",3,True,CHO,ester
10196,"2-ethoxy-4-(phenoxymethyl)-1,3-dioxolane",CCOC1OCC(O1)COC2=CC=CC=C2,446.65,12,"[1, 6, 8]",3,True,CHO,ester
10197,"3,3,6,6-tetramethylocta-1,7-diyne",CC(C)(CCC(C)(C)C#C)C#C,447.94,12,"[1, 6]",2,True,CH,alkyne
10198,"2-(3,4-diethoxyphenyl)acetonitrile",CCOC1=C(C=C(C=C1)CC#N)OCC,450.65,12,"[1, 6, 7, 8]",4,True,CHON,ester
10199,4-phenoxyphenol,C1=CC=C(C=C1)OC2=CC=C(C=C2)O,451.65,12,"[1, 6, 8]",3,True,CHO,ester
10200,"2,4,4,6,6-pentamethylhept-2-ene",CC(=CC(C)(C)CC(C)(C)C)C,453.15,12,"[1, 6]",2,True,CH,alkene
10201,"3-ethyl-2,2,5,5-tetramethylhexane",CCC(CC(C)(C)C)C(C)(C)C,453.15,12,"[1, 6]",2,True,CH,alkane
10202,"4-ethyl-2,2,6-trimethylheptane",CCC(CC(C)C)CC(C)(C)C,453.15,12,"[1, 6]",2,True,CH,alkane
10203,"2,2,5-trimethyl-3-propan-2-ylhexane",CC(C)CC(C(C)C)C(C)(C)C,453.15,12,"[1, 6]",2,True,CH,alkane
10204,"2,2,5-trimethyl-4-propan-2-ylhexane",CC(C)C(CC(C)(C)C)C(C)C,453.15,12,"[1, 6]",2,True,CH,alkane
10205,"8-methoxytricyclo[5.2.1.02,6]decane-4-carbaldehyde",COC1CC2CC1C3C2CC(C3)C=O,453.65,12,"[1, 6, 8]",3,True,CHO,ester
10206,"dodeca-1,11-diyne",C#CCCCCCCCCC#C,454.4,12,"[1, 6]",2,True,CH,alkyne
10207,benzyl 4-oxopentanoate,CC(=O)CCC(=O)OCC1=CC=CC=C1,455.15,12,"[1, 6, 8]",3,True,CHO,ester
10208,"2,2-dimethyl-4-propan-2-ylheptane",CCCC(CC(C)(C)C)C(C)C,455.15,12,"[1, 6]",2,True,CH,alkane
10209,"2,6-dimethyl-4-propan-2-ylheptane",CC(C)CC(CC(C)C)C(C)C,456.15,12,"[1, 6]",2,True,CH,alkane
10210,ethyl (E)-4-oxo-4-phenylbut-2-enoate,CCOC(=O)/C=C/C(=O)C1=CC=CC=C1,457.15,12,"[1, 6, 8]",3,True,CHO,ester
10211,"2,2,5,5-tetramethyloctane",CCCC(C)(C)CCC(C)(C)C,457.15,12,"[1, 6]",2,True,CH,alkane
10212,"2,6-dimethyl-4-propylheptane",CCCC(CC(C)C)CC(C)C,457.75,12,"[1, 6]",2,True,CH,alkane
10213,"1,2,3,4-tetrakis(ethenyl)cyclobutane",C=CC1C(C(C1C=C)C=C)C=C,457.88,12,"[1, 6]",2,True,CH,alkene
10214,"2,2,4,7-tetramethyloctane",CC(C)CCC(C)CC(C)(C)C,457.95,12,"[1, 6]",2,True,CH,alkane
10215,"2,2,4,6-tetramethyloctane",CCC(C)CC(C)CC(C)(C)C,458.15,12,"[1, 6]",2,True,CH,alkane
10216,4-tert-butyl-2-methylheptane,CCCC(CC(C)C)C(C)(C)C,458.15,12,"[1, 6]",2,True,CH,alkane
10217,"4-ethyl-2,4,6-trimethylheptane",CCC(C)(CC(C)C)CC(C)C,458.15,12,"[1, 6]",2,True,CH,alkane
10218,"2,2,3,6,6-pentamethylheptane",CC(CCC(C)(C)C)C(C)(C)C,458.15,12,"[1, 6]",2,True,CH,alkane
10219,"2,2,5,7-tetramethyloctane",CC(C)CC(C)CCC(C)(C)C,458.15,12,"[1, 6]",2,True,CH,alkane
10220,"2,4,4,6-tetramethyloctane",CCC(C)CC(C)(C)CC(C)C,458.15,12,"[1, 6]",2,True,CH,alkane
10221,"2,2,4,5,6-pentamethylheptane",CC(C)C(C)C(C)CC(C)(C)C,458.15,12,"[1, 6]",2,True,CH,alkane
10222,"4-ethyl-2,2,5-trimethylheptane",CCC(C)C(CC)CC(C)(C)C,459.15,12,"[1, 6]",2,True,CH,alkane
10223,"2,2,4,5,5-pentamethylheptane",CCC(C)(C)C(C)CC(C)(C)C,459.15,12,"[1, 6]",2,True,CH,alkane
10224,"2,2,5,5,6-pentamethylheptane",CC(C)C(C)(C)CCC(C)(C)C,459.15,12,"[1, 6]",2,True,CH,alkane
10225,"2,4,5,7-tetramethyloctane",CC(C)CC(C)C(C)CC(C)C,459.4,12,"[1, 6]",2,True,CH,alkane
10226,"2,2,4,5-tetramethyloctane",CCCC(C)C(C)CC(C)(C)C,460.15,12,"[1, 6]",2,True,CH,alkane
10227,"4-ethyl-2,2-dimethyloctane",CCCCC(CC)CC(C)(C)C,460.15,12,"[1, 6]",2,True,CH,alkane
10228,"2,2,3,5,5-pentamethylheptane",CCC(C)(C)CC(C)C(C)(C)C,460.15,12,"[1, 6]",2,True,CH,alkane
10229,"5-ethyl-2,2,4-trimethylheptane",CCC(CC)C(C)CC(C)(C)C,460.15,12,"[1, 6]",2,True,CH,alkane
10230,"5-ethyl-2,2,6-trimethylheptane",CCC(CCC(C)(C)C)C(C)C,460.15,12,"[1, 6]",2,True,CH,alkane
10231,"2,4,6,6-tetramethyloctane",CCC(C)(C)CC(C)CC(C)C,460.15,12,"[1, 6]",2,True,CH,alkane
10232,"2,2,5,5-tetramethyl-3,4-dimethylidenehexane",CC(C)(C)C(=C)C(=C)C(C)(C)C,460.82,12,"[1, 6]",2,True,CH,alkene
10233,ethyl (E)-2-cyano-3-phenylprop-2-enoate,CCOC(=O)/C(=C/C1=CC=CC=C1)/C#N,461.15,12,"[1, 6, 7, 8]",4,True,CHON,ester
10234,"2,2,3,4,6-pentamethylheptane",CC(C)CC(C)C(C)C(C)(C)C,461.15,12,"[1, 6]",2,True,CH,alkane
10235,"5-ethyl-2,2-dimethyloctane",CCCC(CC)CCC(C)(C)C,462.15,12,"[1, 6]",2,True,CH,alkane
10236,"2,4-dimethyl-4-propylheptane",CCCC(C)(CCC)CC(C)C,462.15,12,"[1, 6]",2,True,CH,alkane
10237,"2,5-dimethyl-4-propan-2-ylheptane",CCC(C)C(CC(C)C)C(C)C,462.15,12,"[1, 6]",2,True,CH,alkane
10238,"5-ethyl-2,2,5-trimethylheptane",CCC(C)(CC)CCC(C)(C)C,462.15,12,"[1, 6]",2,True,CH,alkane
10239,"2,2,4-trimethyl-3-propan-2-ylhexane",CCC(C)C(C(C)C)C(C)(C)C,462.15,12,"[1, 6]",2,True,CH,alkane
10240,2-naphthalen-1-ylethanol,C1=CC=C2C(=C1)C=CC=C2CCO,463.15,12,"[1, 6, 8]",3,True,CHO,aromatic
10241,"4-ethyl-2,6-dimethyloctane",CCC(C)CC(CC)CC(C)C,463.15,12,"[1, 6]",2,True,CH,alkane
10242,"4-ethyl-2,7-dimethyloctane",CCC(CCC(C)C)CC(C)C,463.15,12,"[1, 6]",2,True,CH,alkane
10243,"5-ethyl-3,5-dimethyloctane",CCCC(C)(CC)CC(C)CC,463.15,12,"[1, 6]",2,True,CH,alkane
10244,"2,2,5,6-tetramethyloctane",CCC(C)C(C)CCC(C)(C)C,463.15,12,"[1, 6]",2,True,CH,alkane
10245,2-methyl-4-propan-2-yloctane,CCCCC(CC(C)C)C(C)C,463.15,12,"[1, 6]",2,True,CH,alkane
10246,"2,5,5-trimethylnonane",CCCCC(C)(C)CCC(C)C,463.15,12,"[1, 6]",2,True,CH,alkane
10247,"2,6,6-trimethylnonane",CCCC(C)(C)CCCC(C)C,463.15,12,"[1, 6]",2,True,CH,alkane
10248,"3,3,5-trimethylnonane",CCCCC(C)CC(C)(C)CC,463.15,12,"[1, 6]",2,True,CH,alkane
10249,"3,6,6-trimethylnonane",CCCC(C)(C)CCC(C)CC,463.15,12,"[1, 6]",2,True,CH,alkane
10250,"2,2,6-trimethylnonane",CCCC(C)CCCC(C)(C)C,463.15,12,"[1, 6]",2,True,CH,alkane
10251,"2,4,4-trimethylnonane",CCCCCC(C)(C)CC(C)C,463.15,12,"[1, 6]",2,True,CH,alkane
10252,"3,3-diethyl-2,5-dimethylhexane",CCC(CC)(CC(C)C)C(C)C,463.15,12,"[1, 6]",2,True,CH,alkane
10253,"3,4-diethyl-2,5-dimethylhexane",CCC(C(C)C)C(CC)C(C)C,463.15,12,"[1, 6]",2,True,CH,alkane
10254,"3-ethyl-2,2,4,5-tetramethylhexane",CCC(C(C)C(C)C)C(C)(C)C,463.15,12,"[1, 6]",2,True,CH,alkane
10255,"2,5-dimethyl-4-propylheptane",CCCC(CC(C)C)C(C)CC,463.15,12,"[1, 6]",2,True,CH,alkane
10256,"2,2-dimethyl-3-propan-2-ylheptane",CCCCC(C(C)C)C(C)(C)C,463.15,12,"[1, 6]",2,True,CH,alkane
10257,"2,5-dimethyl-3-propan-2-ylheptane",CCC(C)CC(C(C)C)C(C)C,463.15,12,"[1, 6]",2,True,CH,alkane
10258,"4-ethyl-2,3,6-trimethylheptane",CCC(CC(C)C)C(C)C(C)C,463.15,12,"[1, 6]",2,True,CH,alkane
10259,"3-ethyl-2,5,5-trimethylheptane",CCC(CC(C)(C)CC)C(C)C,463.15,12,"[1, 6]",2,True,CH,alkane
10260,"3-ethyl-2,2,5-trimethylheptane",CCC(C)CC(CC)C(C)(C)C,463.15,12,"[1, 6]",2,True,CH,alkane
10261,"3-ethyl-2,2,6-trimethylheptane",CCC(CCC(C)C)C(C)(C)C,463.15,12,"[1, 6]",2,True,CH,alkane
10262,"2,3,5,7-tetramethyloctane",CC(C)CC(C)CC(C)C(C)C,463.15,12,"[1, 6]",2,True,CH,alkane
10263,"2,3,4,4,6-pentamethylheptane",CC(C)CC(C)(C)C(C)C(C)C,463.15,12,"[1, 6]",2,True,CH,alkane
10264,4-ethyl-2-methyl-3-propan-2-ylhexane,CCC(CC)C(C(C)C)C(C)C,463.15,12,"[1, 6]",2,True,CH,alkane
10265,"2,3,5-trimethyl-4-propan-2-ylhexane",CC(C)C(C)C(C(C)C)C(C)C,463.15,12,"[1, 6]",2,True,CH,alkane
10266,"3,4-diethyl-2,2-dimethylhexane",CCC(CC)C(CC)C(C)(C)C,463.15,12,"[1, 6]",2,True,CH,alkane
10267,"2,4,8-trimethylnonane",CC(C)CCCC(C)CC(C)C,464.15,12,"[1, 6]",2,True,CH,alkane
10268,"5-ethyl-3,3-dimethyloctane",CCCC(CC)CC(C)(C)CC,464.15,12,"[1, 6]",2,True,CH,alkane
10269,"3-ethyl-5,5-dimethyloctane",CCCC(C)(C)CC(CC)CC,464.15,12,"[1, 6]",2,True,CH,alkane
10270,2-methyl-5-propan-2-yloctane,CCCC(CCC(C)C)C(C)C,464.15,12,"[1, 6]",2,True,CH,alkane
10271,"4-ethyl-2,4-dimethyloctane",CCCCC(C)(CC)CC(C)C,464.15,12,"[1, 6]",2,True,CH,alkane
10272,"3,5,5-trimethylnonane",CCCCC(C)(C)CC(C)CC,464.15,12,"[1, 6]",2,True,CH,alkane
10273,"4,4,6-trimethylnonane",CCCC(C)CC(C)(C)CCC,464.15,12,"[1, 6]",2,True,CH,alkane
10274,4-tert-butyloctane,CCCCC(CCC)C(C)(C)C,464.15,12,"[1, 6]",2,True,CH,alkane
10275,2-methyl-4-propyloctane,CCCCC(CCC)CC(C)C,464.15,12,"[1, 6]",2,True,CH,alkane
10276,"2,2,4-trimethylnonane",CCCCCC(C)CC(C)(C)C,464.15,12,"[1, 6]",2,True,CH,alkane
10277,"2,2,5-trimethylnonane",CCCCC(C)CCC(C)(C)C,464.15,12,"[1, 6]",2,True,CH,alkane
10278,"4-ethyl-2,2,3,5-tetramethylhexane",CCC(C(C)C)C(C)C(C)(C)C,464.15,12,"[1, 6]",2,True,CH,alkane
10279,"3-ethyl-2,4,6-trimethylheptane",CCC(C(C)C)C(C)CC(C)C,464.15,12,"[1, 6]",2,True,CH,alkane
10280,"2,2,6,7-tetramethyloctane",CC(C)C(C)CCCC(C)(C)C,464.15,12,"[1, 6]",2,True,CH,alkane
10281,"2,4,4,5-tetramethyloctane",CCCC(C)C(C)(C)CC(C)C,464.15,12,"[1, 6]",2,True,CH,alkane
10282,"2,4,4,6,6-pentamethylhept-1-ene",CC(=C)CC(C)(C)CC(C)(C)C,464.26,12,"[1, 6]",2,True,CH,alkene
10283,"2,3,3,5,6-pentamethylheptane",CC(C)C(C)CC(C)(C)C(C)C,465.15,12,"[1, 6]",2,True,CH,alkane
10284,"2,2,3,5-tetramethyloctane",CCCC(C)CC(C)C(C)(C)C,465.15,12,"[1, 6]",2,True,CH,alkane
10285,"2,2,4,4-tetramethyloctane",CCCCC(C)(C)CC(C)(C)C,465.15,12,"[1, 6]",2,True,CH,alkane
10286,3-methyl-5-propan-2-yloctane,CCCC(CC(C)CC)C(C)C,465.15,12,"[1, 6]",2,True,CH,alkane
10287,"6-ethyl-2,4-dimethyloctane",CCC(CC)CC(C)CC(C)C,465.15,12,"[1, 6]",2,True,CH,alkane
10288,"4-ethyl-2,5-dimethyloctane",CCCC(C)C(CC)CC(C)C,465.15,12,"[1, 6]",2,True,CH,alkane
10289,"2,4,6-trimethylnonane",CCCC(C)CC(C)CC(C)C,465.15,12,"[1, 6]",2,True,CH,alkane
10290,"2,3-dimethyl-4-propan-2-ylheptane",CCCC(C(C)C)C(C)C(C)C,465.15,12,"[1, 6]",2,True,CH,alkane
10291,"2,4-dimethyl-3-propan-2-ylheptane",CCCC(C)C(C(C)C)C(C)C,465.15,12,"[1, 6]",2,True,CH,alkane
10292,"2,4-dimethyl-4-propan-2-ylheptane",CCCC(C)(CC(C)C)C(C)C,465.15,12,"[1, 6]",2,True,CH,alkane
10293,"5-ethyl-2,4,4-trimethylheptane",CCC(CC)C(C)(C)CC(C)C,465.15,12,"[1, 6]",2,True,CH,alkane
10294,"4-ethyl-2,5,5-trimethylheptane",CCC(CC(C)C)C(C)(C)CC,465.15,12,"[1, 6]",2,True,CH,alkane
10295,"5-ethyl-2,2,3-trimethylheptane",CCC(CC)CC(C)C(C)(C)C,465.15,12,"[1, 6]",2,True,CH,alkane
10296,"3-ethyl-2,2,4-trimethylheptane",CCCC(C)C(CC)C(C)(C)C,465.15,12,"[1, 6]",2,True,CH,alkane
10297,"2,4,5,5-tetramethyloctane",CCCC(C)(C)C(C)CC(C)C,465.15,12,"[1, 6]",2,True,CH,alkane
10298,"2,4,4-trimethyl-3-propan-2-ylhexane",CCC(C)(C)C(C(C)C)C(C)C,465.15,12,"[1, 6]",2,True,CH,alkane
10299,"4,5-diethyloctane",CCCC(CC)C(CC)CCC,466.15,12,"[1, 6]",2,True,CH,alkane
10300,"6-ethyl-2,2-dimethyloctane",CCC(CC)CCCC(C)(C)C,466.15,12,"[1, 6]",2,True,CH,alkane
10301,"5-ethyl-2,4-dimethyloctane",CCCC(CC)C(C)CC(C)C,466.15,12,"[1, 6]",2,True,CH,alkane
10302,"5-ethyl-2,5-dimethyloctane",CCCC(C)(CC)CCC(C)C,466.15,12,"[1, 6]",2,True,CH,alkane
10303,"3-ethyl-2,5,6-trimethylheptane",CCC(CC(C)C(C)C)C(C)C,466.15,12,"[1, 6]",2,True,CH,alkane
10304,"2,2,3,3,6-pentamethylheptane",CC(C)CCC(C)(C)C(C)(C)C,466.15,12,"[1, 6]",2,True,CH,alkane
10305,"4,5-diethyl-2-methylheptane",CCC(CC)C(CC)CC(C)C,466.15,12,"[1, 6]",2,True,CH,alkane
10306,"4-ethyl-2,2,3-trimethylheptane",CCCC(CC)C(C)C(C)(C)C,466.15,12,"[1, 6]",2,True,CH,alkane
10307,"2,3,6,6-tetramethyloctane",CCC(C)(C)CCC(C)C(C)C,466.15,12,"[1, 6]",2,True,CH,alkane
10308,"3,3,5,6-tetramethyloctane",CCC(C)C(C)CC(C)(C)CC,466.15,12,"[1, 6]",2,True,CH,alkane
10309,"trimethyl benzene-1,2,4-tricarboxylate",COC(=O)C1=CC(=C(C=C1)C(=O)OC)C(=O)OC,467.15,12,"[1, 6, 8]",3,True,CHO,ester
10310,"2,2,3,6-tetramethyloctane",CCC(C)CCC(C)C(C)(C)C,467.15,12,"[1, 6]",2,True,CH,alkane
10311,"2,2,3,7-tetramethyloctane",CC(C)CCCC(C)C(C)(C)C,467.15,12,"[1, 6]",2,True,CH,alkane
10312,4-methyl-5-propan-2-yloctane,CCCC(C)C(CCC)C(C)C,467.15,12,"[1, 6]",2,True,CH,alkane
10313,"5-ethyl-2,3-dimethyloctane",CCCC(CC)CC(C)C(C)C,467.15,12,"[1, 6]",2,True,CH,alkane
10314,"3-ethyl-2,5-dimethyloctane",CCCC(C)CC(CC)C(C)C,467.15,12,"[1, 6]",2,True,CH,alkane
10315,"2,4,7-trimethylnonane",CCC(C)CCC(C)CC(C)C,467.15,12,"[1, 6]",2,True,CH,alkane
10316,"2,5,7-trimethylnonane",CCC(C)CC(C)CCC(C)C,467.15,12,"[1, 6]",2,True,CH,alkane
10317,3-methyl-5-propyloctane,CCCC(CCC)CC(C)CC,467.15,12,"[1, 6]",2,True,CH,alkane
10318,"3-ethyl-2,2,3,5-tetramethylhexane",CCC(C)(CC(C)C)C(C)(C)C,467.15,12,"[1, 6]",2,True,CH,alkane
10319,"2,2,4,4-tetramethyl-3-propan-2-ylpentane",CC(C)C(C(C)(C)C)C(C)(C)C,467.15,12,"[1, 6]",2,True,CH,alkane
10320,"2,3-dimethyl-4-propylheptane",CCCC(CCC)C(C)C(C)C,467.15,12,"[1, 6]",2,True,CH,alkane
10321,"3,3-dimethyl-4-propan-2-ylheptane",CCCC(C(C)C)C(C)(C)CC,467.15,12,"[1, 6]",2,True,CH,alkane
10322,"5-ethyl-2,3,5-trimethylheptane",CCC(C)(CC)CC(C)C(C)C,467.15,12,"[1, 6]",2,True,CH,alkane
10323,"3-ethyl-2,4,4-trimethylheptane",CCCC(C)(C)C(CC)C(C)C,467.15,12,"[1, 6]",2,True,CH,alkane
10324,"2,2,3,3,5-pentamethylheptane",CCC(C)CC(C)(C)C(C)(C)C,467.15,12,"[1, 6]",2,True,CH,alkane
10325,"2,2,3,4,5-pentamethylheptane",CCC(C)C(C)C(C)C(C)(C)C,467.15,12,"[1, 6]",2,True,CH,alkane
10326,"3,5-dimethyl-4-propan-2-ylheptane",CCC(C)C(C(C)C)C(C)CC,467.15,12,"[1, 6]",2,True,CH,alkane
10327,"4,4-diethyl-2-methylheptane",CCCC(CC)(CC)CC(C)C,467.15,12,"[1, 6]",2,True,CH,alkane
10328,"4-ethyl-2,2,4-trimethylheptane",CCCC(C)(CC)CC(C)(C)C,467.15,12,"[1, 6]",2,True,CH,alkane
10329,"5-ethyl-2,3,3-trimethylheptane",CCC(CC)CC(C)(C)C(C)C,467.15,12,"[1, 6]",2,True,CH,alkane
10330,"2,3,3,5-tetramethyloctane",CCCC(C)CC(C)(C)C(C)C,467.15,12,"[1, 6]",2,True,CH,alkane
10331,"2,3,4,7-tetramethyloctane",CC(C)CCC(C)C(C)C(C)C,467.15,12,"[1, 6]",2,True,CH,alkane
10332,"2,4,5,6-tetramethyloctane",CCC(C)C(C)C(C)CC(C)C,467.15,12,"[1, 6]",2,True,CH,alkane
10333,"2,5,5,6-tetramethyloctane",CCC(C)C(C)(C)CCC(C)C,467.15,12,"[1, 6]",2,True,CH,alkane
10334,"2,3,5-trimethyl-3-propan-2-ylhexane",CC(C)CC(C)(C(C)C)C(C)C,467.15,12,"[1, 6]",2,True,CH,alkane
10335,"5-acetylspiro[1-benzofuran-2,1'-cyclopropane]-3-one",CC(=O)C1=CC2=C(C=C1)OC3(C2=O)CC3,467.15,12,"[1, 6, 8]",3,True,CHO,ester
10336,"1,2,3,4,5,6-hexamethylprismane",CC12C3(C1(C4(C2(C34C)C)C)C)C,467.6,12,"[1, 6]",2,True,CH,alkane
10337,"2,2,3,3-tetramethyloctane",CCCCCC(C)(C)C(C)(C)C,467.7,12,"[1, 6]",2,True,CH,alkane
10338,4-methyl-4-propyloctane,CCCCC(C)(CCC)CCC,468.15,12,"[1, 6]",2,True,CH,alkane
10339,"2,3,4,5,6-pentamethylheptane",CC(C)C(C)C(C)C(C)C(C)C,468.15,12,"[1, 6]",2,True,CH,alkane
10340,"2,2,3,3,5,5-hexamethylhexane",CC(C)(C)CC(C)(C)C(C)(C)C,468.15,12,"[1, 6]",2,True,CH,alkane
10341,"5-ethyl-2,6-dimethyloctane",CCC(C)C(CC)CCC(C)C,468.15,12,"[1, 6]",2,True,CH,alkane
10342,"2,2,3,4-tetramethyloctane",CCCCC(C)C(C)C(C)(C)C,468.15,12,"[1, 6]",2,True,CH,alkane
10343,3-methyl-4-propan-2-yloctane,CCCCC(C(C)C)C(C)CC,468.15,12,"[1, 6]",2,True,CH,alkane
10344,"3,3,7-trimethylnonane",CCC(C)CCCC(C)(C)CC,468.15,12,"[1, 6]",2,True,CH,alkane
10345,"3,5,7-trimethylnonane",CCC(C)CC(C)CC(C)CC,468.15,12,"[1, 6]",2,True,CH,alkane
10346,5-ethyl-3-methylnonane,CCCCC(CC)CC(C)CC,468.15,12,"[1, 6]",2,True,CH,alkane
10347,"2,2,7-trimethylnonane",CCC(C)CCCCC(C)(C)C,468.15,12,"[1, 6]",2,True,CH,alkane
10348,"2,2,8-trimethylnonane",CC(C)CCCCCC(C)(C)C,468.15,12,"[1, 6]",2,True,CH,alkane
10349,"2,4,5-trimethylnonane",CCCCC(C)C(C)CC(C)C,468.15,12,"[1, 6]",2,True,CH,alkane
10350,"3,4,4,6-tetramethyloctane",CCC(C)CC(C)(C)C(C)CC,468.15,12,"[1, 6]",2,True,CH,alkane
10351,3-ethyl-4-propan-2-ylheptane,CCCC(C(C)C)C(CC)CC,468.15,12,"[1, 6]",2,True,CH,alkane
10352,"4-ethyl-2,4,5-trimethylheptane",CCC(C)C(C)(CC)CC(C)C,468.15,12,"[1, 6]",2,True,CH,alkane
10353,"3,4-diethyl-2-methylheptane",CCCC(CC)C(CC)C(C)C,468.15,12,"[1, 6]",2,True,CH,alkane
10354,"3,5-diethyl-2-methylheptane",CCC(CC)CC(CC)C(C)C,468.15,12,"[1, 6]",2,True,CH,alkane
10355,"2,3,4,6-tetramethyloctane",CCC(C)CC(C)C(C)C(C)C,468.15,12,"[1, 6]",2,True,CH,alkane
10356,"2,3,5,5-tetramethyloctane",CCCC(C)(C)CC(C)C(C)C,468.15,12,"[1, 6]",2,True,CH,alkane
10357,"2,3,5,6-tetramethyloctane",CCC(C)C(C)CC(C)C(C)C,468.15,12,"[1, 6]",2,True,CH,alkane
10358,"2,3,3,4,6-pentamethylheptane",CC(C)CC(C)C(C)(C)C(C)C,468.15,12,"[1, 6]",2,True,CH,alkane
10359,"(E)-2,2,6,6-tetramethyl-5-methylidenehept-3-ene",CC(C)(C)/C=C/C(=C)C(C)(C)C,468.42,12,"[1, 6]",2,True,CH,alkene
10360,2-methyl-3-propan-2-yloctane,CCCCCC(C(C)C)C(C)C,469.15,12,"[1, 6]",2,True,CH,alkane
10361,"2,3,6,7-tetramethyloctane",CC(C)C(C)CCC(C)C(C)C,469.15,12,"[1, 6]",2,True,CH,alkane
10362,"3-ethyl-2,7-dimethyloctane",CCC(CCCC(C)C)C(C)C,469.15,12,"[1, 6]",2,True,CH,alkane
10363,"6-ethyl-3,3-dimethyloctane",CCC(CC)CCC(C)(C)CC,469.15,12,"[1, 6]",2,True,CH,alkane
10364,"3-ethyl-3,5-dimethyloctane",CCCC(C)CC(C)(CC)CC,469.15,12,"[1, 6]",2,True,CH,alkane
10365,"4-ethyl-3,6-dimethyloctane",CCC(C)CC(CC)C(C)CC,469.15,12,"[1, 6]",2,True,CH,alkane
10366,"5-ethyl-4,4-dimethyloctane",CCCC(CC)C(C)(C)CCC,469.15,12,"[1, 6]",2,True,CH,alkane
10367,4-methyl-5-propyloctane,CCCC(C)C(CCC)CCC,469.15,12,"[1, 6]",2,True,CH,alkane
10368,"3-ethyl-2,2-dimethyloctane",CCCCCC(CC)C(C)(C)C,469.15,12,"[1, 6]",2,True,CH,alkane
10369,"2,5,6-trimethylnonane",CCCC(C)C(C)CCC(C)C,469.15,12,"[1, 6]",2,True,CH,alkane
10370,5-ethyl-2-methylnonane,CCCCC(CC)CCC(C)C,469.15,12,"[1, 6]",2,True,CH,alkane
10371,4-ethyl-6-methylnonane,CCCC(C)CC(CC)CCC,469.15,12,"[1, 6]",2,True,CH,alkane
10372,"2,3,5-trimethylnonane",CCCCC(C)CC(C)C(C)C,469.15,12,"[1, 6]",2,True,CH,alkane
10373,"3,3-dimethyl-4-propylheptane",CCCC(CCC)C(C)(C)CC,469.15,12,"[1, 6]",2,True,CH,alkane
10374,"3,5-dimethyl-4-propylheptane",CCCC(C(C)CC)C(C)CC,469.15,12,"[1, 6]",2,True,CH,alkane
10375,"4-ethyl-2,3,5-trimethylheptane",CCC(C)C(CC)C(C)C(C)C,469.15,12,"[1, 6]",2,True,CH,alkane
10376,"3-ethyl-2,3,6-trimethylheptane",CCC(C)(CCC(C)C)C(C)C,469.15,12,"[1, 6]",2,True,CH,alkane
10377,"3-ethyl-2,4,5-trimethylheptane",CCC(C)C(C)C(CC)C(C)C,469.15,12,"[1, 6]",2,True,CH,alkane
10378,"2,3,3,6-tetramethyloctane",CCC(C)CCC(C)(C)C(C)C,469.15,12,"[1, 6]",2,True,CH,alkane
10379,"2,3,3,7-tetramethyloctane",CC(C)CCCC(C)(C)C(C)C,469.15,12,"[1, 6]",2,True,CH,alkane
10380,"2,3,4,4-tetramethyloctane",CCCCC(C)(C)C(C)C(C)C,469.15,12,"[1, 6]",2,True,CH,alkane
10381,"2,5,6,6-tetramethyloctane",CCC(C)(C)C(C)CCC(C)C,469.15,12,"[1, 6]",2,True,CH,alkane
10382,"3,3,4,6-tetramethyloctane",CCC(C)CC(C)C(C)(C)CC,469.15,12,"[1, 6]",2,True,CH,alkane
10383,"2,2,4,4,5-pentamethylheptane",CCC(C)C(C)(C)CC(C)(C)C,469.15,12,"[1, 6]",2,True,CH,alkane
10384,"2,4,4,5,5-pentamethylheptane",CCC(C)(C)C(C)(C)CC(C)C,469.15,12,"[1, 6]",2,True,CH,alkane
10385,"3-tert-butyl-2,2-dimethylhexane",CCCC(C(C)(C)C)C(C)(C)C,469.15,12,"[1, 6]",2,True,CH,alkane
10386,5-propylnonane,CCCCC(CCC)CCCC,470.15,12,"[1, 6]",2,True,CH,alkane
10387,"5,5-dimethyldecane",CCCCCC(C)(C)CCCC,470.15,12,"[1, 6]",2,True,CH,alkane
10388,"6-ethyl-2,5-dimethyloctane",CCC(CC)C(C)CCC(C)C,470.15,12,"[1, 6]",2,True,CH,alkane
10389,"3-ethyl-2,6-dimethyloctane",CCC(C)CCC(CC)C(C)C,470.15,12,"[1, 6]",2,True,CH,alkane
10390,"4-ethyl-3,5-dimethyloctane",CCCC(C)C(CC)C(C)CC,470.15,12,"[1, 6]",2,True,CH,alkane
10391,"3-ethyl-4,6-dimethyloctane",CCC(C)CC(C)C(CC)CC,470.15,12,"[1, 6]",2,True,CH,alkane
10392,"3,5-diethyloctane",CCCC(CC)CC(CC)CC,470.15,12,"[1, 6]",2,True,CH,alkane
10393,"4-ethyl-2,3-dimethyloctane",CCCCC(CC)C(C)C(C)C,470.15,12,"[1, 6]",2,True,CH,alkane
10394,"3-ethyl-2,4-dimethyloctane",CCCCC(C)C(CC)C(C)C,470.15,12,"[1, 6]",2,True,CH,alkane
10395,"2,7,7-trimethylnonane",CCC(C)(C)CCCCC(C)C,470.15,12,"[1, 6]",2,True,CH,alkane
10396,"3,4,6-trimethylnonane",CCCC(C)CC(C)C(C)CC,470.15,12,"[1, 6]",2,True,CH,alkane
10397,"3,5,6-trimethylnonane",CCCC(C)C(C)CC(C)CC,470.15,12,"[1, 6]",2,True,CH,alkane
10398,3-methyl-4-propyloctane,CCCCC(CCC)C(C)CC,470.15,12,"[1, 6]",2,True,CH,alkane
10399,"4-ethyl-2,2,4,5-tetramethylhexane",CCC(C)(CC(C)(C)C)C(C)C,470.15,12,"[1, 6]",2,True,CH,alkane
10400,"4-ethyl-2,3,3,5-tetramethylhexane",CCC(C(C)C)C(C)(C)C(C)C,470.15,12,"[1, 6]",2,True,CH,alkane
10401,"3,4,5,5-tetramethyloctane",CCCC(C)(C)C(C)C(C)CC,470.15,12,"[1, 6]",2,True,CH,alkane
10402,"5-ethyl-2,3,4-trimethylheptane",CCC(CC)C(C)C(C)C(C)C,470.15,12,"[1, 6]",2,True,CH,alkane
10403,"5-ethyl-2,4,5-trimethylheptane",CCC(C)(CC)C(C)CC(C)C,470.15,12,"[1, 6]",2,True,CH,alkane
10404,"4-ethyl-3,3,5-trimethylheptane",CCC(C)C(CC)C(C)(C)CC,470.15,12,"[1, 6]",2,True,CH,alkane
10405,"3,5-diethyl-3-methylheptane",CCC(CC)CC(C)(CC)CC,470.15,12,"[1, 6]",2,True,CH,alkane
10406,"2,3,4,5-tetramethyloctane",CCCC(C)C(C)C(C)C(C)C,470.15,12,"[1, 6]",2,True,CH,alkane
10407,"3,3,5,5-tetramethyloctane",CCCC(C)(C)CC(C)(C)CC,470.15,12,"[1, 6]",2,True,CH,alkane