,Name,SMILES,Tb,C Atom,Atom,Count Unique Atom,Pass Screen,Atom2,Func. Group
3956,(2S)-2-amino-2-methylbutanedioic acid,C[C@](CC(=O)O)(C(=O)O)N,674.32,5,"[1, 6, 7, 8]",4,True,CHON,carboxylic_acid
3957,2-amino-5-hydroxy-4-oxopentanoic acid,C(C(C(=O)O)N)C(=O)CO,677.65,5,"[1, 6, 7, 8]",4,True,CHON,carboxylic_acid
3958,butanedioyl dicyanide,C(CC(=O)C#N)C(=O)C#N,274.35,6,"[1, 6, 7, 8]",4,True,CHON,ketone
3959,2-methylidenepentanenitrile,CCCC(=C)C#N,276.7785,6,"[1, 6, 7]",3,True,CHN,alkene
3960,cyclohexyl nitrite,C1CCC(CC1)ON=O,304.15,6,"[1, 6, 7, 8]",4,True,CHON,ester
3961,[nitroso(propan-2-yl)amino]methyl acetate,CC(C)N(COC(=O)C)N=O,307.95,6,"[1, 6, 7, 8]",4,True,CHON,ester
3962,2-amino-3-hydroxy-9-methylpurin-6-one,CN1C=NC2=C1N(C(=NC2=O)N)O,319.55,6,"[1, 6, 7, 8]",4,True,CHON,aromatic
3963,N-(2-hydroxypropyl)-N-(2-oxopropyl)nitrous amide,CC(CN(CC(=O)C)N=O)O,319.75,6,"[1, 6, 7, 8]",4,True,CHON,alcohol
3964,"(E)-hex-3-en-1,5-diyne",C#C/C=C/C#C,321.28,6,"[1, 6]",2,True,CH,alkene
3965,"(Z)-hex-3-en-1,5-diyne",C#C/C=C\C#C,321.28,6,"[1, 6]",2,True,CH,alkene
3966,"3,6-dihydro-2H-pyran-5-carbaldehyde",C1COCC(=C1)C=O,322.35,6,"[1, 6, 8]",3,True,CHO,ester
3967,"3-methylpenta-1,4-diene",CC(C=C)C=C,325.15,6,"[1, 6]",2,True,CH,alkene
3968,"1,3-dimethylbicyclo[1.1.0]butane",CC12CC1(C2)C,327.45,6,"[1, 6]",2,True,CH,alkane
3969,"2,2-diethoxyacetonitrile",CCOC(C#N)OCC,328.65,6,"[1, 6, 7, 8]",4,True,CHON,ester
3970,prismane,C12C3C1C4C2C34,328.88,6,"[1, 6]",2,True,CH,alkane
3971,hex-4-en-1-yne,CC=CCC#C,331.16,6,"[1, 6]",2,True,CH,alkene
3972,4-methylpent-2-ene,CC=CC(C)C,332.15,6,"[1, 6]",2,True,CH,alkene
3973,"1,3-dimethylcyclobutane",CC1CC(C1)C,332.4,6,"[1, 6]",2,True,CH,alkane
3974,N-nitroso-N-propylpropanamide,CCCN(C(=O)CC)N=O,332.5,6,"[1, 6, 7, 8]",4,True,CHON,amide
3975,bicyclo[2.1.1]hex-2-ene,C1C2CC1C=C2,334.15,6,"[1, 6]",2,True,CH,alkene
3976,3-methylidenepent-1-yne,CCC(=C)C#C,335.15,6,"[1, 6]",2,True,CH,alkene
3977,"2-(4,5-dihydro-1,3-oxazol-2-yl)propan-1-ol",CC(CO)C1=NCCO1,335.15,6,"[1, 6, 7, 8]",4,True,CHON,ester
3978,1-ethenyl-2-methylcyclopropane,CC1CC1C=C,335.63,6,"[1, 6]",2,True,CH,alkene
3979,"hexa-1,3-diyne",CCC#CC#C,336.0,6,"[1, 6]",2,True,CH,alkyne
3980,2-methyloxolane-2-carbonitrile,CC1(CCCO1)C#N,336.15,6,"[1, 6, 7, 8]",4,True,CHON,ester
3981,3-hydroxy-2-imino-1-methyl-7H-purin-6-one,CN1C(=O)C2=C(N=CN2)N(C1=N)O,336.15,6,"[1, 6, 7, 8]",4,True,CHON,aromatic
3982,ethynylcyclobutane,C#CC1CCC1,338.01,6,"[1, 6]",2,True,CH,alkyne
3983,"pyrrolo[3,4-b]pyrazine-5,7-dione",C1=CN=C2C(=N1)C(=O)NC2=O,338.65,6,"[1, 6, 7, 8]",4,True,CHON,aromatic
3984,"tricyclo[3.1.0.02,6]hex-3-ene",C1=CC2C3C1C23,338.78,6,"[1, 6]",2,True,CH,alkene
3985,"tricyclo[3.1.0.02,6]hexane",C1CC2C3C1C23,339.62,6,"[1, 6]",2,True,CH,alkane
3986,3-ethenyl-3-methylcyclopropene,CC1(C=C1)C=C,339.7,6,"[1, 6]",2,True,CH,alkene
3987,1-ethenyl-1-methylcyclopropane,CC1(CC1)C=C,340.54,6,"[1, 6]",2,True,CH,alkene
3988,piperidine-1-carboxamide,C1CCN(CC1)C(=O)N,341.15,6,"[1, 6, 7, 8]",4,True,CHON,amide
3989,3-methylpent-2-ene,CCC(=CC)C,342.15,6,"[1, 6]",2,True,CH,alkene
3990,2-methylpent-1-en-3-yne,CC#CC(=C)C,342.44,6,"[1, 6]",2,True,CH,alkene
3991,"1,1-dimethyl-2-methylidenecyclopropane",CC1(CC1=C)C,343.02,6,"[1, 6]",2,True,CH,alkene
3992,hex-1-en-5-yne,C=CCCC#C,343.15,6,"[1, 6]",2,True,CH,alkene
3993,"(E)-N,N-dimethylbut-1-en-3-yn-1-amine",CN(C)/C=C/C#C,343.6,6,"[1, 6, 7]",3,True,CHN,alkene
3994,ethenylcyclobutane,C=CC1CCC1,344.57,6,"[1, 6]",2,True,CH,alkene
3995,"1-methoxy-2,2-dimethylpropane",CC(C)(C)COC,345.15,6,"[1, 6, 8]",3,True,CHO,ester
3996,"1,2,3-trimethylidenecyclopropane",C=C1C(=C)C1=C,345.77,6,"[1, 6]",2,True,CH,alkene
3997,"1-methylcyclopenta-1,3-diene",CC1=CC=CC1,345.93,6,"[1, 6]",2,True,CH,alkene
3998,"2,3-diethynyloxirane",C#CC1C(O1)C#C,346.14,6,"[1, 6, 8]",3,True,CHO,ester
3999,(E)-hex-3-en-1-yne,CC/C=C/C#C,346.15,6,"[1, 6]",2,True,CH,alkene
4000,"2-methylcyclopenta-1,3-diene",CC1=CCC=C1,346.65,6,"[1, 6]",2,True,CH,alkene
4001,[(E)-prop-1-enyl]cyclopropane,C/C=C/C1CC1,347.78,6,"[1, 6]",2,True,CH,alkene
4002,"1,3,3-trimethylcyclopropene",CC1=CC1(C)C,348.0,6,"[1, 6]",2,True,CH,alkene
4003,"bicyclo[2.2.0]hexa-2,5-diene",C1=CC2C1C=C2,348.68,6,"[1, 6]",2,True,CH,alkene
4004,3-cycloprop-2-en-1-ylcyclopropene,C1=CC1C2C=C2,348.68,6,"[1, 6]",2,True,CH,alkene
4005,"(3E)-2-methylpenta-1,3-diene",C/C=C/C(=C)C,348.715,6,"[1, 6]",2,True,CH,alkene
4006,bicyclo[3.1.0]hex-2-ene,C1C=CC2C1C2,349.52,6,"[1, 6]",2,True,CH,alkene
4007,bicyclo[2.2.0]hex-2-ene,C1CC2C1C=C2,349.52,6,"[1, 6]",2,True,CH,alkene
4008,"(3E)-3-methylpenta-1,3-diene",C/C=C(\C)/C=C,350.15,6,"[1, 6]",2,True,CH,alkene
4009,"5-methylcyclopenta-1,3-diene",CC1C=CC=C1,350.48,6,"[1, 6]",2,True,CH,alkene
4010,"(3E)-hexa-1,3,5-triene",C=C/C=C/C=C,350.65,6,"[1, 6]",2,True,CH,alkene
4011,2-(furan-2-yl)acetonitrile,C1=COC(=C1)CC#N,350.65,6,"[1, 6, 7, 8]",4,True,CHON,aromatic
4012,1-pyrazin-2-ylethanone,CC(=O)C1=NC=CN=C1,352.65,6,"[1, 6, 7, 8]",4,True,CHON,aromatic
4013,hex-3-yn-2-ol,CCC#CC(C)O,353.15,6,"[1, 6, 8]",3,True,CHO,alkyne
4014,"N,N,2-trimethylprop-1-en-1-amine",CC(=CN(C)C)C,353.36,6,"[1, 6, 7]",3,True,CHN,alkene
4015,"hexa-1,3,5-triyne",C#CC#CC#C,353.39,6,"[1, 6]",2,True,CH,alkyne
4016,"(E)-N,N-dimethylbut-1-en-1-amine",CC/C=C/N(C)C,353.48,6,"[1, 6, 7]",3,True,CHN,alkene
4017,(E)-1-ethoxybut-1-en-3-yne,CCO/C=C/C#C,353.58,6,"[1, 6, 8]",3,True,CHO,ester
4018,2-ethenoxybutane,CCC(C)OC=C,354.15,6,"[1, 6, 8]",3,True,CHO,ester
4019,fulvene,C=C1C=CC=C1,354.31,6,"[1, 6]",2,True,CH,alkene
4020,spiro[2.3]hex-1-ene,C1CC2(C1)C=C2,354.43,6,"[1, 6]",2,True,CH,alkene
4021,propan-2-ylidenecyclopropane,CC(=C1CC1)C,354.81,6,"[1, 6]",2,True,CH,alkene
4022,3-methylidenecyclopentene,C=C1CCC=C1,355.15,6,"[1, 6]",2,True,CH,alkene
4023,spiro[2.3]hexane,C1CC2(C1)CC2,355.27,6,"[1, 6]",2,True,CH,alkane
4024,2-methoxy-3-methylbut-1-ene,CC(C)C(=C)OC,355.42,6,"[1, 6, 8]",3,True,CHO,ester
4025,"N,N,2-trimethylprop-2-en-1-amine",CC(=C)CN(C)C,355.65,6,"[1, 6, 7]",3,True,CHN,alkene
4026,1-methyl-3-methylidenecyclobutene,CC1=CC(=C)C1,355.86,6,"[1, 6]",2,True,CH,alkene
4027,2-methoxypent-1-ene,CCCC(=C)OC,355.86,6,"[1, 6, 8]",3,True,CHO,ester
4028,2-methoxy-3-methylbutane,CC(C)C(C)OC,356.15,6,"[1, 6, 8]",3,True,CHO,ester
4029,4-hydroxycyclohexan-1-one,C1CC(=O)CCC1O,357.15,6,"[1, 6, 8]",3,True,CHO,alcohol
4030,"1-N,1-N,1-N',1-N'-tetramethylethene-1,1-diamine",CN(C)C(=C)N(C)C,358.32,6,"[1, 6, 7]",3,True,CHN,alkene
4031,2-(tert-butylamino)acetonitrile,CC(C)(C)NCC#N,358.65,6,"[1, 6, 7]",3,True,CHN,amine
4032,2-tert-butyloxirane,CC(C)(C)C1CO1,359.15,6,"[1, 6, 8]",3,True,CHO,ester
4033,"(1E)-1-ethoxybuta-1,3-diene",CCO/C=C/C=C,360.14,6,"[1, 6, 8]",3,True,CHO,ester
4034,(E)-3-methoxy-2-(methoxymethyl)prop-2-enenitrile,COC/C(=C/OC)/C#N,360.15,6,"[1, 6, 7, 8]",4,True,CHON,ester
4035,hex-1-en-4-yne,CC#CCC=C,360.15,6,"[1, 6]",2,True,CH,alkene
4036,1-(2-methylprop-1-enyl)aziridine,CC(=CN1CC1)C,360.5,6,"[1, 6, 7]",3,True,CHN,alkene
4037,1-[(E)-but-1-enyl]aziridine,CC/C=C/N1CC1,360.62,6,"[1, 6, 7]",3,True,CHN,alkene
4038,1-[(Z)-but-1-enyl]aziridine,CC/C=C\N1CC1,360.62,6,"[1, 6, 7]",3,True,CHN,alkene
4039,3-methoxypentane,CCC(CC)OC,361.15,6,"[1, 6, 8]",3,True,CHO,ester
4040,"2-N-cyclopropyl-1,3,5-triazine-2,4,6-triamine",C1CC1NC2=NC(=NC(=N2)N)N,361.45,6,"[1, 6, 7]",3,True,CHN,aromatic
4041,"1,2-dimethylcyclobutene",CC1=C(CC1)C,361.68,6,"[1, 6]",2,True,CH,alkene
4042,(Z)-1-propan-2-yloxyprop-1-ene,C/C=C\OC(C)C,363.02,6,"[1, 6, 8]",3,True,CHO,ester
4043,(E)-1-methoxy-3-methylbut-1-ene,CC(C)/C=C/OC,363.02,6,"[1, 6, 8]",3,True,CHO,ester
4044,"N,N,2-trimethylpropan-2-amine",CC(C)(C)N(C)C,363.04752,6,"[1, 6, 7]",3,True,CHN,amine
4045,2-methoxy-3-methylbut-2-ene,CC(=C(C)OC)C,363.22,6,"[1, 6, 8]",3,True,CHO,ester
4046,(E)-3-methoxypent-2-ene,CC/C(=C\C)/OC,363.34,6,"[1, 6, 8]",3,True,CHO,ester
4047,(E)-1-ethoxybut-1-ene,CC/C=C/OCC,363.46,6,"[1, 6, 8]",3,True,CHO,ester
4048,(Z)-1-ethoxybut-1-ene,CC/C=C\OCC,363.46,6,"[1, 6, 8]",3,True,CHO,ester
4049,1-[(E)-prop-1-enoxy]propane,CCCO/C=C/C,363.46,6,"[1, 6, 8]",3,True,CHO,ester
4050,"2,5-dimethyloxolane",CC1CCC(O1)C,364.15,6,"[1, 6, 8]",3,True,CHO,ester
4051,2-methoxypentane,CCCC(C)OC,364.65,6,"[1, 6, 8]",3,True,CHO,ester
4052,2-methyl-3-propyloxirane,CCCC1C(O1)C,365.9,6,"[1, 6, 8]",3,True,CHO,ester
4053,"N,N-dimethylbutan-2-amine",CCC(C)N(C)C,366.4,6,"[1, 6, 7]",3,True,CHN,amine
4054,N-prop-2-ynylprop-2-yn-1-amine,C#CCNCC#C,367.29,6,"[1, 6, 7]",3,True,CHN,alkyne
4055,1-methyl-4H-pyridine,CN1C=CCC=C1,367.59,6,"[1, 6, 7]",3,True,CHN,alkene
4056,1-prop-1-enoxyprop-1-ene,CC=COC=CC,367.62,6,"[1, 6, 8]",3,True,CHO,ester
4057,(E)-1-[(E)-prop-1-enoxy]prop-1-ene,C/C=C/O/C=C/C,367.62,6,"[1, 6, 8]",3,True,CHO,ester
4058,(Z)-1-[(E)-prop-1-enoxy]prop-1-ene,C/C=C/O/C=C\C,367.62,6,"[1, 6, 8]",3,True,CHO,ester
4059,"N,3-dimethylbut-3-en-2-amine",CC(C(=C)C)NC,367.65,6,"[1, 6, 7]",3,True,CHN,alkene
4060,"2-ethoxybuta-1,3-diene",CCOC(=C)C=C,367.65,6,"[1, 6, 8]",3,True,CHO,ester
4061,"2-ethenoxy-N,N-dimethylethanamine",CN(C)CCOC=C,368.42,6,"[1, 6, 7, 8]",4,True,CHON,ester
4062,"1-methyl-3,6-dihydro-2H-pyridine",CN1CCC=CC1,368.43,6,"[1, 6, 7]",3,True,CHN,alkene
4063,cyclopropylidenecyclopropane,C1CC1=C2CC2,368.82,6,"[1, 6]",2,True,CH,alkene
4064,bicyclo[2.2.0]hex-1(4)-ene,C1CC2=C1CC2,368.82,6,"[1, 6]",2,True,CH,alkene
4065,"1,3-dimethylpyrrolidin-2-one",CC1CCN(C1=O)C,369.65,6,"[1, 6, 7, 8]",4,True,CHON,amide
4066,N-prop-2-enylpropan-2-amine,CC(C)NCC=C,369.65,6,"[1, 6, 7]",3,True,CHN,alkene
4067,N-ethylbutan-2-amine,CCC(C)NCC,370.15,6,"[1, 6, 7]",3,True,CHN,amine
4068,"3-ethyl-2,2-dimethyloxirane",CCC1C(O1)(C)C,370.65,6,"[1, 6, 8]",3,True,CHO,ester
4069,"N',N'-bis(2-aminoethyl)ethane-1,2-diamine",C(CN(CCN)CCN)N,370.65,6,"[1, 6, 7]",3,True,CHN,amine
4070,2-methyl-2-propyloxirane,CCCC1(CO1)C,370.81,6,"[1, 6, 8]",3,True,CHO,ester
4071,1-prop-1-enoxypropane,CCCOC=CC,371.15,6,"[1, 6, 8]",3,True,CHO,ester
4072,"1,3-dimethyl-2-methylideneimidazole",CN1C=CN(C1=C)C,371.49,6,"[1, 6, 7]",3,True,CHN,alkene
4073,"N,2-dimethylbutan-2-amine",CCC(C)(C)NC,372.15,6,"[1, 6, 7]",3,True,CHN,amine
4074,"3,3-dimethylbutanal",CC(C)(C)CC=O,372.15,6,"[1, 6, 8]",3,True,CHO,aldehyde
4075,"1,3-dimethylpyrazole-4-carbaldehyde",CC1=NN(C=C1C=O)C,372.15,6,"[1, 6, 7, 8]",4,True,CHON,aromatic
4076,"2-methoxy-3-methylbuta-1,3-diene",CC(=C)C(=C)OC,372.15,6,"[1, 6, 8]",3,True,CHO,ester
4077,"2,2,4-trimethyl-1,3-dioxolane",CC1COC(O1)(C)C,372.65,6,"[1, 6, 8]",3,True,CHO,ester
4078,3-methoxycyclopentene,COC1CCC=C1,373.74,6,"[1, 6, 8]",3,True,CHO,ester
4079,4-methoxycyclopentene,COC1CC=CC1,373.74,6,"[1, 6, 8]",3,True,CHO,ester
4080,"4-methyl-3,4-dihydro-2H-pyran",CC1CCOC=C1,374.4,6,"[1, 6, 8]",3,True,CHO,ester
4081,"2-N,4-N,6-N-trimethyl-1,3,5-triazine-2,4,6-triamine",CNC1=NC(=NC(=N1)NC)NC,375.65,6,"[1, 6, 7]",3,True,CHN,aromatic
4082,"2,4,5-trimethyl-1,3-dioxolane",CC1C(OC(O1)C)C,376.15,6,"[1, 6, 8]",3,True,CHO,ester
4083,"1,2-dimethyl-3,6-dihydropyridazine",CN1CC=CCN1C,376.6,6,"[1, 6, 7]",3,True,CHN,alkene
4084,2-methylpentan-1-amine,CCCC(C)CN,376.65,6,"[1, 6, 7]",3,True,CHN,amine
4085,"2,5-dimethyl-2,5-dihydro-1H-pyrrole",CC1C=CC(N1)C,376.65,6,"[1, 6, 7]",3,True,CHN,alkene
4086,"1,3-dimethyl-1,3-diazinane",CN1CCCN(C1)C,377.44,6,"[1, 6, 7]",3,True,CHN,amine
4087,3-(1-methoxyethoxy)prop-1-ene,CC(OC)OCC=C,377.96,6,"[1, 6, 8]",3,True,CHO,ester
4088,4-methyloxane,CC1CCOCC1,378.15,6,"[1, 6, 8]",3,True,CHO,ester
4089,"2,2-dimethyl-4-methylidene-1,3-dioxolane",CC1(OCC(=C)O1)C,378.15,6,"[1, 6, 8]",3,True,CHO,ester
4090,"2,3-dimethylbutan-1-amine",CC(C)C(C)CN,378.15,6,"[1, 6, 7]",3,True,CHN,amine
4091,"1,1-diethoxyethene",CCOC(=C)OCC,378.28,6,"[1, 6, 8]",3,True,CHO,ester
4092,"2,2-dimethoxybutane",CCC(C)(OC)OC,378.49,6,"[1, 6, 8]",3,True,CHO,ester
4093,2-ethylperoxy-2-methylpropane,CCOOC(C)(C)C,378.49,6,"[1, 6, 8]",3,True,CHO,ester
4094,"3,3-dimethyl-2-propan-2-yloxaziridine",CC(C)N1C(O1)(C)C,378.54,6,"[1, 6, 7, 8]",4,True,CHON,ester
4095,methoxycyclopentane,COC1CCCC1,378.59,6,"[1, 6, 8]",3,True,CHO,ester
4096,3-methyl-2-methylidenebutanal,CC(C)C(=C)C=O,378.65,6,"[1, 6, 8]",3,True,CHO,alkene
4097,"4,5-dimethyl-2,3-dihydrofuran",CC1=C(OCC1)C,379.15,6,"[1, 6, 8]",3,True,CHO,ester
4098,3-methylpentan-2-amine,CCC(C)C(C)N,379.15,6,"[1, 6, 7]",3,True,CHN,amine
4099,"2,2-dimethylpyrrolidine",CC1(CCCN1)C,379.15,6,"[1, 6, 7]",3,True,CHN,amine
4100,"2,5-dimethylpyrrolidine",CC1CCC(N1)C,379.65,6,"[1, 6, 7]",3,True,CHN,amine
4101,"7-oxabicyclo[4.1.0]hepta-2,4-diene",C1=CC2C(O2)C=C1,379.9,6,"[1, 6, 8]",3,True,CHO,ester
4102,"2,2-diethyloxirane",CCC1(CO1)CC,380.15,6,"[1, 6, 8]",3,True,CHO,ester
4103,"1-ethyl-3-(1,3-oxazol-2-yl)urea",CCNC(=O)NC1=NC=CO1,380.15,6,"[1, 6, 7, 8]",4,True,CHON,aromatic
4104,4-methylpent-1-yn-3-one,CC(C)C(=O)C#C,380.43,6,"[1, 6, 8]",3,True,CHO,alkyne
4105,2-ethylbut-2-enoic acid,CCC(=CC)C(=O)O,380.65,6,"[1, 6, 8]",3,True,CHO,alkene
4106,7-oxabicyclo[2.2.1]hept-2-ene,C1CC2C=CC1O2,380.74,6,"[1, 6, 8]",3,True,CHO,ester
4107,2-propan-2-ylperoxypropane,CC(C)OOC(C)C,380.84,6,"[1, 6, 8]",3,True,CHO,ester
4108,hex-1-yn-3-one,CCCC(=O)C#C,380.87,6,"[1, 6, 8]",3,True,CHO,alkyne
4109,N-methyl-N-pyridin-2-ylnitrous amide,CN(C1=CC=CC=N1)N=O,381.15,6,"[1, 6, 7, 8]",4,True,CHON,aromatic
4110,4-methyl-4H-pyran,CC1C=COC=C1,381.7,6,"[1, 6, 8]",3,True,CHO,ester
4111,"1,4-dimethoxybutane",COCCCCOC,381.72,6,"[1, 6, 8]",3,True,CHO,ester
4112,1-propylperoxypropane,CCCOOCCC,381.72,6,"[1, 6, 8]",3,True,CHO,ester
4113,1-(2-methoxyethoxy)propane,CCCOCCOC,381.72,6,"[1, 6, 8]",3,True,CHO,ester
4114,2-methylpent-4-enal,CC(CC=C)C=O,381.78,6,"[1, 6, 8]",3,True,CHO,alkene
4115,prop-2-ynyl prop-2-enoate,C=CC(=O)OCC#C,381.9,6,"[1, 6, 8]",3,True,CHO,ester
4116,3-methyloxane,CC1CCCOC1,382.15,6,"[1, 6, 8]",3,True,CHO,ester
4117,4-methylideneoxane,C=C1CCOCC1,382.15,6,"[1, 6, 8]",3,True,CHO,ester
4118,2-butyloxirane,CCCCC1CO1,382.65,6,"[1, 6, 8]",3,True,CHO,ester
4119,propan-2-yl prop-2-enoate,CC(C)OC(=O)C=C,383.15,6,"[1, 6, 8]",3,True,CHO,ester
4120,(E)-4-methylpent-2-enal,CC(C)/C=C/C=O,383.15,6,"[1, 6, 8]",3,True,CHO,alkene
4121,2-methyloxane,CC1CCCCO1,383.38,6,"[1, 6, 8]",3,True,CHO,ester
4122,1-methoxycyclopentene,COC1=CCCC1,383.39,6,"[1, 6, 8]",3,True,CHO,ester
4123,"N,2,2-trimethylpropan-1-amine",CC(C)(C)CNC,383.82,6,"[1, 6, 7]",3,True,CHN,amine
4124,"1,5-diazabicyclo[3.2.1]octane",C1CN2CCN(C1)C2,384.58,6,"[1, 6, 7]",3,True,CHN,amine
4125,ethenyl 2-methylprop-2-enoate,CC(=C)C(=O)OC=C,384.65,6,"[1, 6, 8]",3,True,CHO,ester
4126,but-3-en-2-yl acetate,CC(C=C)OC(=O)C,385.00481,6,"[1, 6, 8]",3,True,CHO,ester
4127,(E)-hex-4-en-1-yn-3-one,C/C=C/C(=O)C#C,385.03,6,"[1, 6, 8]",3,True,CHO,alkene
4128,"2,4,4-trimethyl-5H-1,3-oxazole",CC1=NC(CO1)(C)C,385.15,6,"[1, 6, 7, 8]",4,True,CHON,ester
4129,2-(2-methylpropyl)oxirane,CC(C)CC1CO1,385.15,6,"[1, 6, 8]",3,True,CHO,ester
4130,2-methylbutan-2-yl formate,CCC(C)(C)OC=O,385.50004,6,"[1, 6, 8]",3,True,CHO,ester
4131,"1,2,4-trimethyl-1,2,4-triazinane",CN1CCN(N(C1)C)C,385.61,6,"[1, 6, 7]",3,True,CHN,amine
4132,"1,1-dimethoxy-2-methylprop-1-ene",CC(=C(OC)OC)C,385.64,6,"[1, 6, 8]",3,True,CHO,ester
4133,"3,3-dimethylbutan-1-amine",CC(C)(C)CCN,386.0,6,"[1, 6, 7]",3,True,CHN,amine
4134,prop-1-en-2-yl propanoate,CCC(=O)OC(=C)C,386.15,6,"[1, 6, 8]",3,True,CHO,ester
4135,"N,3-dimethylbutan-2-amine",CC(C)C(C)NC,386.17,6,"[1, 6, 7]",3,True,CHN,amine
4136,N-methylpentan-2-amine,CCCC(C)NC,386.61,6,"[1, 6, 7]",3,True,CHN,amine
4137,methyl 2-methylbutanoate,CCC(C)C(=O)OC,386.65,6,"[1, 6, 8]",3,True,CHO,ester
4138,"2,2-dimethylbutan-1-amine",CCC(C)(C)CN,386.65,6,"[1, 6, 7]",3,True,CHN,amine
4139,4-methylpent-1-en-3-one,CC(C)C(=O)C=C,386.99,6,"[1, 6, 8]",3,True,CHO,alkene
4140,hex-1-en-3-one,CCCC(=O)C=C,387.43,6,"[1, 6, 8]",3,True,CHO,alkene
4141,hex-5-en-3-one,CCC(=O)CC=C,387.43,6,"[1, 6, 8]",3,True,CHO,alkene
4142,6-hydroxyhexanoic acid,C(CCC(=O)O)CCO,387.65,6,"[1, 6, 8]",3,True,CHO,alcohol
4143,"5-ethyl-2,3-dihydrofuran",CCC1=CCCO1,387.92,6,"[1, 6, 8]",3,True,CHO,ester
4144,"2,3-dimethylbutanal",CC(C)C(C)C=O,389.15,6,"[1, 6, 8]",3,True,CHO,aldehyde
4145,"2,4-dimethylpyrrolidine",CC1CC(NC1)C,389.15,6,"[1, 6, 7]",3,True,CHN,amine
4146,hex-5-ynenitrile,C#CCCCC#N,389.15,6,"[1, 6, 7]",3,True,CHN,alkyne
4147,3-ethyloxolane,CCC1CCOC1,389.15,6,"[1, 6, 8]",3,True,CHO,ester
4148,(E)-3-methylpent-2-enal,CC/C(=C/C=O)/C,389.58,6,"[1, 6, 8]",3,True,CHO,alkene
4149,(E)-2-ethylbut-2-enal,CC/C(=C\C)/C=O,389.58,6,"[1, 6, 8]",3,True,CHO,alkene
4150,oxepine,C1=CC=COC=C1,389.8,6,"[1, 6, 8]",3,True,CHO,ester
4151,2-methylidenepentanal,CCCC(=C)C=O,390.15,6,"[1, 6, 8]",3,True,CHO,alkene
4152,ethenyl but-3-enoate,C=CCC(=O)OC=C,390.15,6,"[1, 6, 8]",3,True,CHO,ester
4153,2-methoxypyridin-3-amine,COC1=C(C=CC=N1)N,390.15,6,"[1, 6, 7, 8]",4,True,CHON,ester
4154,"2,5-dimethyl-1,4-dioxane",CC1COC(CO1)C,390.15,6,"[1, 6, 8]",3,True,CHO,ester
4155,N-methylpentan-1-amine,CCCCCNC,390.15,6,"[1, 6, 7]",3,True,CHN,amine
4156,(2Z)-2-ethylideneoxolane,C/C=C\1/CCCO1,390.42,6,"[1, 6, 8]",3,True,CHO,ester
4157,(2E)-2-ethylideneoxolane,C/C=C/1\CCCO1,390.42,6,"[1, 6, 8]",3,True,CHO,ester
4158,"4-methylpentane-2,3-dione",CC(C)C(=O)C(=O)C,390.65,6,"[1, 6, 8]",3,True,CHO,ketone
4159,"1,4-dimethoxybut-2-yne",COCC#CCOC,390.72,6,"[1, 6, 8]",3,True,CHO,ester
4160,1-acetylpyrrolidin-2-one,CC(=O)N1CCCC1=O,391.15,6,"[1, 6, 7, 8]",4,True,CHON,amide
4161,hex-5-enal,C=CCCCC=O,391.4,6,"[1, 6, 8]",3,True,CHO,alkene
4162,"(3E)-hexa-3,5-dien-2-one",CC(=O)/C=C/C=C,391.59,6,"[1, 6, 8]",3,True,CHO,alkene
4163,"2-ethyl-4-methyl-1,3-dioxolane",CCC1OCC(O1)C,391.65,6,"[1, 6, 8]",3,True,CHO,ester
4164,"1,3-dimethoxybutane",CC(CCOC)OC,391.65,6,"[1, 6, 8]",3,True,CHO,ester
4165,"2,3-dimethylbut-3-en-2-ol",CC(=C)C(C)(C)O,391.65,6,"[1, 6, 8]",3,True,CHO,alkene
4166,"2-propan-2-yl-1,3-dioxolane",CC(C)C1OCCO1,392.15,6,"[1, 6, 8]",3,True,CHO,ester
4167,but-1-en-2-yl acetate,CCC(=C)OC(=O)C,392.15,6,"[1, 6, 8]",3,True,CHO,ester
4168,"1,1-dimethoxy-N,N-dimethylethanamine",CC(N(C)C)(OC)OC,392.15,6,"[1, 6, 7, 8]",4,True,CHON,ester
4169,"6-methyl-3,4-dihydro-2H-pyran",CC1=CCCCO1,392.19,6,"[1, 6, 8]",3,True,CHO,ester
4170,3-prop-2-ynoxyprop-1-yne,C#CCOCC#C,392.65,6,"[1, 6, 8]",3,True,CHO,ester
4171,1-(2-methylcyclopropyl)ethanone,CC1CC1C(=O)C,392.82,6,"[1, 6, 8]",3,True,CHO,ketone
4172,"N,N-bis(prop-2-ynyl)nitrous amide",C#CCN(CC#C)N=O,392.96,6,"[1, 6, 7, 8]",4,True,CHON,alkyne
4173,2-(propoxymethyl)oxirane,CCCOCC1CO1,392.99,6,"[1, 6, 8]",3,True,CHO,ester
4174,[(E)-but-2-en-2-yl] acetate,C/C=C(\C)/OC(=O)C,393.15,6,"[1, 6, 8]",3,True,CHO,ester
4175,2-but-3-enyloxirane,C=CCCC1CO1,393.15,6,"[1, 6, 8]",3,True,CHO,ester
4176,1-nitroso-1-pentylurea,CCCCCN(C(=O)N)N=O,393.15,6,"[1, 6, 7, 8]",4,True,CHON,amide
4177,4-[(E)-dimethylaminodiazenyl]-1H-imidazole-5-carboxamide,CN(C)/N=N/C1=C(NC=N1)C(=O)N,393.55,6,"[1, 6, 7, 8]",4,True,CHON,aromatic
4178,"2,2-dimethoxy-N,N-dimethylethanamine",CN(C)CC(OC)OC,393.72,6,"[1, 6, 7, 8]",4,True,CHON,ester
4179,"(2E,4Z)-hexa-2,4-dienal",C/C=C\C=C\C=O,393.86,6,"[1, 6, 8]",3,True,CHO,alkene
4180,4-methylpentanal,CC(C)CCC=O,394.15,6,"[1, 6, 8]",3,True,CHO,aldehyde
4181,"2-ethoxy-N,N-dimethylethanamine",CCOCCN(C)C,394.15,6,"[1, 6, 7, 8]",4,True,CHON,ester
4182,3-methylpentan-1-amine,CCC(C)CCN,395.15,6,"[1, 6, 7]",3,True,CHN,amine
4183,ethenyl (E)-but-2-enoate,C/C=C/C(=O)OC=C,395.94,6,"[1, 6, 8]",3,True,CHO,ester
4184,2-methylcyclopentan-1-amine,CC1CCCC1N,396.15,6,"[1, 6, 7]",3,True,CHN,amine
4185,"N-(2,3-dihydroxypropyl)-N-prop-2-enylnitrous amide",C=CCN(CC(CO)O)N=O,396.65,6,"[1, 6, 7, 8]",4,True,CHON,alkene
4186,3-propan-2-yloxetan-2-one,CC(C)C1COC1=O,397.13,6,"[1, 6, 8]",3,True,CHO,ester
4187,2-methylprop-2-enyl acetate,CC(=C)COC(=O)C,397.15,6,"[1, 6, 8]",3,True,CHO,ester
4188,N-methylcyclopentanamine,CNC1CCCC1,397.15,6,"[1, 6, 7]",3,True,CHN,amine
4189,"3,3,4,4-tetramethyldioxetane",CC1(C(OO1)(C)C)C,397.6,6,"[1, 6, 8]",3,True,CHO,ester
4190,"2,2-dimethyl-1,3-dioxane",CC1(OCCCO1)C,397.65,6,"[1, 6, 8]",3,True,CHO,ester
4191,but-3-enyl acetate,CC(=O)OCCC=C,398.15,6,"[1, 6, 8]",3,True,CHO,ester