,Name,SMILES,Tb,C Atom,Atom,Count Unique Atom,Pass Screen,Atom2,Func. Group
8232,"2-methyl-5-prop-1-en-2-ylcyclohexa-1,3-diene",CC1=CCC(C=C1)C(=C)C,447.81,10,"[1, 6]",2,True,CH,alkene
8233,"5,6-dimethylidenebicyclo[2.2.2]oct-2-ene",C=C1C2CCC(C1=C)C=C2,447.9,10,"[1, 6]",2,True,CH,alkene
8234,"2,4-dimethylidenebicyclo[3.2.1]oct-6-ene",C=C1CC(=C)C2CC1C=C2,447.9,10,"[1, 6]",2,True,CH,alkene
8235,1-methyl-2-prop-1-en-2-ylbenzene,CC1=CC=CC=C1C(=C)C,448.15,10,"[1, 6]",2,True,CH,alkene
8236,1-methyl-5-prop-1-en-2-ylcyclohexene,CC1=CCCC(C1)C(=C)C,448.15,10,"[1, 6]",2,True,CH,alkene
8237,"tricyclo[4.2.2.02,5]decane",C1CC2CCC1C3C2CC3,448.22,10,"[1, 6]",2,True,CH,alkane
8238,"tricyclo[6.2.0.03,6]decane",C1CC2C1CC3CCC3C2,448.22,10,"[1, 6]",2,True,CH,alkane
8239,adamantane,C1C2CC3CC1CC(C2)C3,448.22,10,"[1, 6]",2,True,CH,alkane
8240,"tricyclo[3.3.2.02,8]decane",C1CC2C3C2CCC1CC3,448.22,10,"[1, 6]",2,True,CH,alkane
8241,"tricyclo[7.1.0.04,6]decane",C1CC2CC2CCC3C1C3,448.22,10,"[1, 6]",2,True,CH,alkane
8242,"tricyclo[5.2.1.04,10]decane",C1CC2CCC3C2C1CC3,448.22,10,"[1, 6]",2,True,CH,alkane
8243,3-methyl-1-(2-methylbut-3-en-2-yloxy)but-2-ene,CC(=CCOC(C)(C)C=C)C,448.31,10,"[1, 6, 8]",3,True,CHO,ester
8244,"4-methyl-3a,4,7,7a-tetrahydro-1H-indene",CC1C=CCC2C1C=CC2,448.34,10,"[1, 6]",2,True,CH,alkene
8245,"2,3-dimethylidenebicyclo[2.2.2]octane",C=C1C2CCC(C1=C)CC2,448.74,10,"[1, 6]",2,True,CH,alkene
8246,"2,4-dimethylidenebicyclo[3.2.1]octane",C=C1CC(=C)C2CCC1C2,448.74,10,"[1, 6]",2,True,CH,alkene
8247,"7-propan-2-ylcyclohepta-1,3,5-triene",CC(C)C1C=CC=CC=C1,449.26,10,"[1, 6]",2,True,CH,alkene
8248,1-methyl-2-propan-2-ylbenzene,CC1=CC=CC=C1C(C)C,449.65,10,"[1, 6]",2,True,CH,aromatic
8249,"3-(1-methoxyethenyl)tricyclo[2.2.1.02,6]heptane",COC(=C)C1C2CC3C1C3C2,449.72,10,"[1, 6, 8]",3,True,CHO,ester
8250,1-methoxynonane,CCCCCCCCCOC,450.82,10,"[1, 6, 8]",3,True,CHO,ester
8251,1-butoxyhexane,CCCCCCOCCCC,450.82,10,"[1, 6, 8]",3,True,CHO,ester
8252,1-propoxyheptane,CCCCCCCOCCC,450.82,10,"[1, 6, 8]",3,True,CHO,ester
8253,"2,2-dimethyl-3-(3-methylidenepent-4-enyl)oxirane",CC1(C(O1)CCC(=C)C=C)C,450.9,10,"[1, 6, 8]",3,True,CHO,ester
8254,"7-propan-2-ylidenebicyclo[2.2.1]hepta-2,5-diene",CC(=C1C2C=CC1C=C2)C,450.99,10,"[1, 6]",2,True,CH,alkene
8255,2-[cyclohexyl(2-hydroxyethyl)amino]ethanol,C1CCC(CC1)N(CCO)CCO,451.15,10,"[1, 6, 7, 8]",4,True,CHON,alcohol
8256,"9-methylidenebicyclo[4.2.1]nona-2,4,7-triene",C=C1C2C=CC=CC1C=C2,451.33,10,"[1, 6]",2,True,CH,alkene
8257,"1,5,5-trimethyl-3-methylidenecyclohexene",CC1=CC(=C)CC(C1)(C)C,451.49,10,"[1, 6]",2,True,CH,alkene
8258,1-methyl-6-propan-2-ylcyclohexene,CC1=CCCCC1C(C)C,451.65,10,"[1, 6]",2,True,CH,alkene
8259,7-propan-2-ylidenebicyclo[2.2.1]hept-2-ene,CC(=C1C2CCC1C=C2)C,451.83,10,"[1, 6]",2,True,CH,alkene
8260,"spiro[bicyclo[2.2.2]octane-2,1'-cyclopropane]",C1CC2CCC1CC23CC3,453.13,10,"[1, 6]",2,True,CH,alkane
8261,9-methylidenebicyclo[4.2.1]nonane,C=C1C2CCCCC1CC2,453.85,10,"[1, 6]",2,True,CH,alkene
8262,"2,2,4-trimethylheptan-4-ol",CCCC(C)(CC(C)(C)C)O,454.15,10,"[1, 6, 8]",3,True,CHO,alcohol
8263,ethenyl 2-ethylhexanoate,CCCCC(CC)C(=O)OC=C,454.25,10,"[1, 6, 8]",3,True,CHO,ester
8264,3-methylbutylidenecyclopentane,CC(C)CC=C1CCCC1,454.55,10,"[1, 6]",2,True,CH,alkene
8265,"tricyclo[4.2.2.01,6]deca-2,4,7,9-tetraene",C1=CC23C=CC2(C=C1)C=C3,454.68,10,"[1, 6]",2,True,CH,alkene
8266,pentylidenecyclopentane,CCCCC=C1CCCC1,454.99,10,"[1, 6]",2,True,CH,alkene
8267,"4,7,7-trimethyl-6-oxabicyclo[3.2.1]oct-3-ene",CC1=CCC2CC1OC2(C)C,455.15,10,"[1, 6, 8]",3,True,CHO,ester
8268,"2,4,6-trimethylheptan-4-ol",CC(C)CC(C)(CC(C)C)O,455.15,10,"[1, 6, 8]",3,True,CHO,alcohol
8269,4-methyl-2-(2-methylprop-1-enyl)oxane,CC1CCOC(C1)C=C(C)C,455.15,10,"[1, 6, 8]",3,True,CHO,ester
8270,"2,3,4,4-tetramethylhexan-2-ol",CCC(C)(C)C(C)C(C)(C)O,456.0,10,"[1, 6, 8]",3,True,CHO,alcohol
8271,3-(dimethoxymethyl)heptane,CCCCC(CC)C(OC)OC,456.15,10,"[1, 6, 8]",3,True,CHO,ester
8272,1-(2-methylpropyl)cyclohexene,CC(C)CC1=CCCCC1,456.32,10,"[1, 6]",2,True,CH,alkene
8273,"tricyclo[4.3.1.01,6]deca-2,4-diene",C1CC23CC2(C1)C=CC=C3,456.36,10,"[1, 6]",2,True,CH,alkene
8274,"dispiro[2.0.24.43]deca-7,9-diene",C1CC12C=CC=CC23CC3,456.36,10,"[1, 6]",2,True,CH,alkene
8275,"dispiro[2.2.26.23]deca-4,9-diene",C1CC12C=CC3(CC3)C=C2,456.36,10,"[1, 6]",2,True,CH,alkene
8276,"dispiro[2.0.24.43]deca-1,5-diene",C1CCC2(C=C2)C3(C1)C=C3,456.36,10,"[1, 6]",2,True,CH,alkene
8277,"1,2,6,6-tetramethylcyclohexa-1,3-diene",CC1=C(C(CC=C1)(C)C)C,456.47,10,"[1, 6]",2,True,CH,alkene
8278,"tricyclo[4.3.1.01,6]dec-3-ene",C1CC23CC=CCC2(C1)C3,457.2,10,"[1, 6]",2,True,CH,alkene
8279,"tricyclo[4.2.2.01,6]dec-7-ene",C1CCC23CCC2(C1)C=C3,457.2,10,"[1, 6]",2,True,CH,alkene
8280,dispiro[2.0.24.43]dec-7-ene,C1CC2(CC2)C3(CC3)C=C1,457.2,10,"[1, 6]",2,True,CH,alkene
8281,"tricyclo[4.3.1.01,6]dec-2-ene",C1CC23CCC=CC2(C1)C3,457.2,10,"[1, 6]",2,True,CH,alkene
8282,3-cyclopent-2-en-1-ylcyclopentene,C1CC(C=C1)C2CCC=C2,457.28,10,"[1, 6]",2,True,CH,alkene
8283,"(3Z)-bicyclo[4.2.2]deca-3,7-diene",C1CC2C/C=C\CC1C=C2,457.28,10,"[1, 6]",2,True,CH,alkene
8284,"(2Z,6Z)-bicyclo[6.2.0]deca-2,6-diene",C1/C=C\C2C(/C=C\C1)CC2,457.28,10,"[1, 6]",2,True,CH,alkene
8285,"5,8,8-trimethyl-3-oxatricyclo[5.1.0.02,4]octane",CC1CC2C(C2(C)C)C3C1O3,457.53,10,"[1, 6, 8]",3,True,CHO,ester
8286,1-methyl-3-propan-2-ylidenecyclohexene,CC1=CC(=C(C)C)CCC1,457.65,10,"[1, 6]",2,True,CH,alkene
8287,6-methylheptan-3-yl acetate,CCC(CCC(C)C)OC(=O)C,457.65,10,"[1, 6, 8]",3,True,CHO,ester
8288,dec-2-yne,CCCCCCCC#CC,457.75,10,"[1, 6]",2,True,CH,alkyne
8289,dispiro[2.0.24.43]decane,C1CCC2(CC2)C3(C1)CC3,458.04,10,"[1, 6]",2,True,CH,alkane
8290,dispiro[2.2.26.23]decane,C1CC2(CCC13CC3)CC2,458.04,10,"[1, 6]",2,True,CH,alkane
8291,1-methyl-3-prop-1-en-2-ylbenzene,CC1=CC(=CC=C1)C(=C)C,458.15,10,"[1, 6]",2,True,CH,alkene
8292,1-methylidene-4-propan-2-ylidenecyclohexane,CC(=C1CCC(=C)CC1)C,458.3,10,"[1, 6]",2,True,CH,alkene
8293,"2,2,6,6-tetramethylcyclohexan-1-one",CC1(CCCC(C1=O)(C)C)C,458.65,10,"[1, 6, 8]",3,True,CHO,ketone
8294,2-methylbutyl 2-methylbutanoate,CCC(C)COC(=O)C(C)CC,458.65,10,"[1, 6, 8]",3,True,CHO,ester
8295,bicyclo[3.3.2]decane,C1CC2CCCC(C1)CC2,458.96,10,"[1, 6]",2,True,CH,alkane
8296,"1,2,3,3a,4,5,6,7,8,8a-decahydroazulene",C1CCC2CCCC2CC1,458.96,10,"[1, 6]",2,True,CH,alkane
8297,"2,2,3-trimethylheptan-3-ol",CCCCC(C)(C(C)(C)C)O,459.15,10,"[1, 6, 8]",3,True,CHO,alcohol
8298,(4-ethoxy-3-methoxyphenyl)methanol,CCOC1=C(C=C(C=C1)CO)OC,459.15,10,"[1, 6, 8]",3,True,CHO,ester
8299,5-(1-methoxyethenyl)bicyclo[2.2.1]hept-2-ene,COC(=C)C1CC2CC1C=C2,459.62,10,"[1, 6, 8]",3,True,CHO,ester
8300,1-ethoxyoctane,CCCCCCCCOCC,459.7,10,"[1, 6, 8]",3,True,CHO,ester
8301,"4-cyclopropylbuta-1,3-diynylcyclopropane",C1CC1C#CC#CC2CC2,459.88,10,"[1, 6]",2,True,CH,alkyne
8302,1-ethenoxyoctane,CCCCCCCCOC=C,460.0,10,"[1, 6, 8]",3,True,CHO,ester
8303,"4-ethyl-2,2-dimethylhexan-3-ol",CCC(CC)C(C(C)(C)C)O,460.15,10,"[1, 6, 8]",3,True,CHO,alcohol
8304,"4-methylidene-1-azatricyclo[3.3.1.13,7]decane",C=C1C2CC3CC1CN(C3)C2,460.22,10,"[1, 6, 7]",3,True,CHN,alkene
8305,2-(1-methoxyethenyl)bicyclo[2.2.1]heptane,COC(=C)C1CC2CCC1C2,460.46,10,"[1, 6, 8]",3,True,CHO,ester
8306,"3,7-dimethyloct-1-yn-3-ol",CC(C)CCCC(C)(C#C)O,460.65,10,"[1, 6, 8]",3,True,CHO,alkyne
8307,"2,2,4,4-tetramethylhexan-3-ol",CCC(C)(C)C(C(C)(C)C)O,460.65,10,"[1, 6, 8]",3,True,CHO,alcohol
8308,"2-ethynyl-2,6,6-trimethyloxane",CC1(CCCC(O1)(C)C#C)C,460.83,10,"[1, 6, 8]",3,True,CHO,ester
8309,"1,10-diazapentacyclo[5.4.1.02,6.03,10.04,8]dodecane",C1C2C3CN4C2C5C1C3CN5C4,460.96,10,"[1, 6, 7]",3,True,CHN,amine
8310,cyclopropylmethylbenzene,C1CC1CC2=CC=CC=C2,461.15,10,"[1, 6]",2,True,CH,aromatic
8311,1-methyl-2-propan-2-ylcyclohexene,CC1=C(CCCC1)C(C)C,461.3,10,"[1, 6]",2,True,CH,alkene
8312,2-octyloxirane,CCCCCCCCC1CO1,462.09,10,"[1, 6, 8]",3,True,CHO,ester
8313,"3,8,8-trimethyl-4-oxatricyclo[5.1.0.03,5]octane",CC1(C2C1CC3(C(C2)O3)C)C,462.44,10,"[1, 6, 8]",3,True,CHO,ester
8314,"3-ethyl-2,2,4-trimethylpentan-3-ol",CCC(C(C)C)(C(C)(C)C)O,462.65,10,"[1, 6, 8]",3,True,CHO,alcohol
8315,ethylcyclooctatetraene,CCC1=CC=CC=CC=C1,462.78,10,"[1, 6]",2,True,CH,alkene
8316,9-ethyl-9-azabicyclo[3.3.1]nonane,CCN1C2CCCC1CCC2,462.86,10,"[1, 6, 7]",3,True,CHN,amine
8317,4-propan-2-yl-1-azabicyclo[2.2.2]octane,CC(C)C12CCN(CC1)CC2,463.06,10,"[1, 6, 7]",3,True,CHN,amine
8318,"2,2-dimethyloctan-4-ol",CCCCC(CC(C)(C)C)O,463.15,10,"[1, 6, 8]",3,True,CHO,alcohol
8319,propan-2-ylidenecycloheptane,CC(=C1CCCCCC1)C,463.41,10,"[1, 6]",2,True,CH,alkene
8320,"3-(1-methoxyethylidene)tricyclo[2.2.1.02,6]heptane",CC(=C1C2CC3C1C3C2)OC,464.35,10,"[1, 6, 8]",3,True,CHO,ester
8321,1-[(E)-pent-2-en-3-yl]piperidine,CC/C(=C\C)/N1CCCCC1,464.83,10,"[1, 6, 7]",3,True,CHN,alkene
8322,"2,2,3,4-tetramethylhexan-3-ol",CCC(C)C(C)(C(C)(C)C)O,464.89743,10,"[1, 6, 8]",3,True,CHO,alcohol
8323,"tricyclo[5.2.1.02,6]deca-2,5,8-triene",C1C=C2C3CC(C2=C1)C=C3,465.0,10,"[1, 6]",2,True,CH,alkene
8324,"1,3,3-trimethylbicyclo[2.2.1]heptan-2-one",CC1(C2CCC(C2)(C1=O)C)C,465.15,10,"[1, 6, 8]",3,True,CHO,ketone
8325,"4,7-dimethyloctan-4-ol",CCCC(C)(CCC(C)C)O,465.15,10,"[1, 6, 8]",3,True,CHO,alcohol
8326,9-methoxy-9-oxononanoic acid,COC(=O)CCCCCCCC(=O)O,465.65,10,"[1, 6, 8]",3,True,CHO,carboxylic_acid
8327,2-[4-(2-hydroxyethoxy)phenoxy]ethanol,C1=CC(=CC=C1OCCO)OCCO,465.65,10,"[1, 6, 8]",3,True,CHO,ester
8328,"1,1,3-triethoxybut-2-ene",CCOC(C=C(C)OCC)OCC,465.65,10,"[1, 6, 8]",3,True,CHO,ester
8329,"1,2,3,4-tetramethyl-5-methylidenecyclopenta-1,3-diene",CC1=C(C(=C)C(=C1C)C)C,465.75,10,"[1, 6]",2,True,CH,alkene
8330,"5-butan-2-yl-2,2-dimethyloxolane",CCC(C)C1CCC(O1)(C)C,465.76,10,"[1, 6, 8]",3,True,CHO,ester
8331,"tricyclo[5.2.1.02,6]deca-2,5-diene",C1CC2CC1C3=CCC=C23,465.84,10,"[1, 6]",2,True,CH,alkene
8332,N-(2-methylpropyl)cyclohexanamine,CC(C)CNC1CCCCC1,466.15,10,"[1, 6, 7]",3,True,CHN,amine
8333,"2,5,6-trimethylheptan-2-ol",CC(C)C(C)CCC(C)(C)O,466.15,10,"[1, 6, 8]",3,True,CHO,alcohol
8334,3-ethyl-2-methylheptan-3-ol,CCCCC(CC)(C(C)C)O,466.15,10,"[1, 6, 8]",3,True,CHO,alcohol
8335,"tricyclo[5.2.1.02,6]decane",C1CC2C3CCC(C3)C2C1,466.15,10,"[1, 6]",2,True,CH,alkane
8336,"2-ethenyl-1,4-dimethylbenzene",CC1=CC(=C(C=C1)C)C=C,466.18,10,"[1, 6]",2,True,CH,alkene
8337,"1,2,3,4-tetramethyl-2,3-diazabicyclo[2.2.2]oct-5-ene",CC12CCC(C=C1)(N(N2C)C)C,466.4,10,"[1, 6, 7]",3,True,CHN,alkene
8338,"tricyclo[5.3.0.02,6]dec-1(7)-ene",C1CC2C(C1)C3=C2CCC3,466.68,10,"[1, 6]",2,True,CH,alkene
8339,2-methyl-2-(2-methylbutan-2-ylperoxy)butane,CCC(C)(C)OOC(C)(C)CC,466.78,10,"[1, 6, 8]",3,True,CHO,ester
8340,"1,3,3-trimethyl-6-azabicyclo[3.2.1]octane",CC1(CC2CC(C1)(CN2)C)C,467.15,10,"[1, 6, 7]",3,True,CHN,amine
8341,"2,7-dimethyloctan-3-ol",CC(C)CCCC(C(C)C)O,467.15,10,"[1, 6, 8]",3,True,CHO,alcohol
8342,"2-ethenyl-2,6,6-trimethyloxane",CC1(CCCC(O1)(C)C=C)C,467.39,10,"[1, 6, 8]",3,True,CHO,ester
8343,1-cyclopropyl-4-methylbenzene,CC1=CC=C(C=C1)C2CC2,467.4,10,"[1, 6]",2,True,CH,aromatic
8344,2-ethoxyethylbenzene,CCOCCC1=CC=CC=C1,467.65,10,"[1, 6, 8]",3,True,CHO,ester
8345,"2,2-diethoxy-N,N-diethylethanamine",CCN(CC)CC(OCC)OCC,467.65,10,"[1, 6, 7, 8]",4,True,CHON,ester
8346,"3,4,5,5-tetramethylhexan-3-ol",CCC(C)(C(C)C(C)(C)C)O,467.8,10,"[1, 6, 8]",3,True,CHO,alcohol
8347,ethylidenecyclooctane,CC=C1CCCCCCC1,467.8,10,"[1, 6]",2,True,CH,alkene
8348,"(1Z,5E)-cyclodeca-1,5-diene",C1CC/C=C\CC/C=C/C1,468.02,10,"[1, 6]",2,True,CH,alkene
8349,"(1Z,6Z)-cyclodeca-1,6-diene",C1C/C=C\CCC/C=C\C1,468.02,10,"[1, 6]",2,True,CH,alkene
8350,"(1E,6E)-cyclodeca-1,6-diene",C1C/C=C/CCC/C=C/C1,468.02,10,"[1, 6]",2,True,CH,alkene
8351,cyclodecene,C1CCCC/C=C\CCC1,468.15,10,"[1, 6]",2,True,CH,alkene
8352,"3,7-dimethyloctanoic acid",CC(C)CCCC(C)CC(=O)O,468.15,10,"[1, 6, 8]",3,True,CHO,alcohol
8353,"2-methyl-2,3-dihydro-1H-indene",CC1CC2=CC=CC=C2C1,468.15,10,"[1, 6]",2,True,CH,aromatic
8354,6-methylnon-5-en-4-one,CCCC(=CC(=O)CCC)C,468.15,10,"[1, 6, 8]",3,True,CHO,alkene
8355,"(7,7-dimethyl-1-bicyclo[2.2.1]heptanyl)methanamine",CC1(C2CCC1(CC2)CN)C,468.15,10,"[1, 6, 7]",3,True,CHN,amine
8356,"2,6-dimethyloctan-4-ol",CCC(C)CC(CC(C)C)O,468.15,10,"[1, 6, 8]",3,True,CHO,alcohol
8357,"1,1,2,2-tetraethoxyethane",CCOC(C(OCC)OCC)OCC,468.65,10,"[1, 6, 8]",3,True,CHO,ester
8358,"3,5,5-trimethylheptan-3-ol",CCC(C)(C)CC(C)(CC)O,468.8,10,"[1, 6, 8]",3,True,CHO,alcohol
8359,1-propan-2-ylazocane,CC(C)N1CCCCCCC1,468.89,10,"[1, 6, 7]",3,True,CHN,amine
8360,6-prop-1-en-2-yl-8-oxabicyclo[3.2.1]octane,CC(=C)C1CC2CCCC1O2,469.26,10,"[1, 6, 8]",3,True,CHO,ester
8361,"(1Z,5Z)-1,5-dimethylcycloocta-1,5-diene",C/C/1=C/CC/C(=C\CC1)/C,469.44,10,"[1, 6]",2,True,CH,alkene
8362,"N,N-dimethyl-1-(4-methylphenyl)methanamine",CC1=CC=C(C=C1)CN(C)C,469.65,10,"[1, 6, 7]",3,True,CHN,aromatic
8363,"3,3,5,5-tetramethylcyclohexan-1-one",CC1(CC(=O)CC(C1)(C)C)C,469.65,10,"[1, 6, 8]",3,True,CHO,ketone
8364,1-methyl-3-propan-2-yloxybenzene,CC1=CC(=CC=C1)OC(C)C,469.65,10,"[1, 6, 8]",3,True,CHO,ester
8365,"2,3,5,6-tetramethylidene-7-oxabicyclo[2.2.1]heptane",C=C1C2C(=C)C(=C)C(C1=C)O2,469.74,10,"[1, 6, 8]",3,True,CHO,ester
8366,4-methylnonan-2-one,CCCCCC(C)CC(=O)C,470.0,10,"[1, 6, 8]",3,True,CHO,ketone
8367,1-[2-[(2-methylpropan-2-yl)oxy]ethoxy]butane,CCCCOCCOC(C)(C)C,470.01,10,"[1, 6, 8]",3,True,CHO,ester
8368,8-methylnonanal,CC(C)CCCCCCC=O,470.15,10,"[1, 6, 8]",3,True,CHO,aldehyde
8369,"5-[(E)-but-2-en-2-yl]-2,2-dimethyloxolane",C/C=C(\C)/C1CCC(O1)(C)C,470.24,10,"[1, 6, 8]",3,True,CHO,ester
8370,"9-methoxybicyclo[4.2.1]nona-2,4-diene",COC1C2CCC1C=CC=C2,470.76,10,"[1, 6, 8]",3,True,CHO,ester
8371,"1,2,3,4-tetramethylbenzene",CC1=C(C(=C(C=C1)C)C)C,471.15,10,"[1, 6]",2,True,CH,aromatic
8372,"6,6-dimethylspiro[bicyclo[3.1.1]heptane-2,2'-oxirane]",CC1(C2CCC3(C1C2)CO3)C,471.38,10,"[1, 6, 8]",3,True,CHO,ester
8373,"3-methoxy-N,N-dimethylbicyclo[2.2.1]heptan-2-amine",CN(C)C1C2CCC(C2)C1OC,471.67,10,"[1, 6, 7, 8]",4,True,CHON,ester
8374,hexyl 2-methylpropanoate,CCCCCCOC(=O)C(C)C,472.15,10,"[1, 6, 8]",3,True,CHO,ester
8375,"3,4,5-trimethoxybenzamide",COC1=CC(=CC(=C1OC)OC)C(=O)N,472.15,10,"[1, 6, 7, 8]",4,True,CHON,ester
8376,"1,1-dimethoxyoctane",CCCCCCCC(OC)OC,472.8,10,"[1, 6, 8]",3,True,CHO,ester
8377,1-(1-ethoxyethoxy)hexane,CCCCCCOC(C)OCC,472.8,10,"[1, 6, 8]",3,True,CHO,ester
8378,"2,3,4,4-tetramethylhexan-3-ol",CCC(C)(C)C(C)(C(C)C)O,473.02342,10,"[1, 6, 8]",3,True,CHO,alcohol
8379,2-methyl-1-phenylprop-2-en-1-one,CC(=C)C(=O)C1=CC=CC=C1,473.15,10,"[1, 6, 8]",3,True,CHO,alkene
8380,"1,2-bis(ethenyl)benzene",C=CC1=CC=CC=C1C=C,473.15,10,"[1, 6]",2,True,CH,alkene
8381,2-(3-methylbutyl)pyridine,CC(C)CCC1=CC=CC=N1,473.15,10,"[1, 6, 7]",3,True,CHN,aromatic
8382,"3,7-dimethyloct-7-enal",CC(CCCC(=C)C)CC=O,473.18,10,"[1, 6, 8]",3,True,CHO,alkene
8383,"1,8-dimethoxyoctane",COCCCCCCCCOC,473.24,10,"[1, 6, 8]",3,True,CHO,ester
8384,1-methoxy-4-methylbicyclo[2.2.2]octane,CC12CCC(CC1)(CC2)OC,473.32,10,"[1, 6, 8]",3,True,CHO,ester
8385,"3,5,5-trimethylheptanal",CCC(C)(C)CC(C)CC=O,473.39,10,"[1, 6, 8]",3,True,CHO,aldehyde
8386,"6,6-dimethoxy-2-methylhept-2-ene",CC(=CCCC(C)(OC)OC)C,474.05,10,"[1, 6, 8]",3,True,CHO,ester
8387,2-methylnonan-3-one,CCCCCCC(=O)C(C)C,474.15,10,"[1, 6, 8]",3,True,CHO,ketone
8388,1-methyl-4-[(E)-prop-1-enyl]benzene,C/C=C/C1=CC=C(C=C1)C,474.15,10,"[1, 6]",2,True,CH,alkene
8389,5-(1-methoxyethylidene)bicyclo[2.2.1]hept-2-ene,CC(=C1CC2CC1C=C2)OC,474.25,10,"[1, 6, 8]",3,True,CHO,ester
8390,2-butyl-4-methylpyridine,CCCCC1=NC=CC(=C1)C,474.65,10,"[1, 6, 7]",3,True,CHN,aromatic
8391,"1,4-di(propan-2-yl)piperazine",CC(C)N1CCN(CC1)C(C)C,474.65,10,"[1, 6, 7]",3,True,CHN,amine
8392,4-methyl-2-propan-2-ylhexan-1-ol,CCC(C)CC(CO)C(C)C,474.65,10,"[1, 6, 8]",3,True,CHO,alcohol
8393,(2Z)-2-(1-methoxyethylidene)bicyclo[2.2.1]heptane,C/C(=C/1\CC2CCC1C2)/OC,475.09,10,"[1, 6, 8]",3,True,CHO,ester
8394,"3,4,4,5-tetramethylhexan-3-ol",CCC(C)(C(C)(C)C(C)C)O,475.1,10,"[1, 6, 8]",3,True,CHO,alcohol
8395,"5-methyl-2,3-dihydro-1H-indene",CC1=CC2=C(CCC2)C=C1,475.15,10,"[1, 6]",2,True,CH,aromatic
8396,N-ethyloctan-1-amine,CCCCCCCCNCC,475.15,10,"[1, 6, 7]",3,True,CHN,amine
8397,"4-(dimethylamino)-3,5-dimethylphenol",CC1=CC(=CC(=C1N(C)C)C)O,475.15,10,"[1, 6, 7, 8]",4,True,CHON,alcohol
8398,5-methylnonan-5-ol,CCCCC(C)(CCCC)O,475.15,10,"[1, 6, 8]",3,True,CHO,alcohol
8399,"1-cyclohexyl-2,5-dihydropyrrole",C1CCC(CC1)N2CC=CC2,475.23,10,"[1, 6, 7]",3,True,CHN,alkene
8400,"1-ethenyl-2,4-dimethylbenzene",CC1=CC(=C(C=C1)C=C)C,475.26,10,"[1, 6]",2,True,CH,alkene
8401,"1,3,3-trimethylbicyclo[2.2.1]heptan-2-ol",CC1(C2CCC(C2)(C1O)C)C,475.65,10,"[1, 6, 8]",3,True,CHO,alcohol
8402,"1,4,5,8-tetrahydronaphthalene",C1C=CCC2=C1CC=CC2,475.74,10,"[1, 6]",2,True,CH,alkene
8403,1-azabicyclo[3.3.3]undecane,C1CC2CCCN(C1)CCC2,476.07,10,"[1, 6, 7]",3,True,CHN,amine
8404,"1,2,3,4,5,8-hexahydronaphthalene",C1CCC2=C(C1)CC=CC2,476.58,10,"[1, 6]",2,True,CH,alkene
8405,oct-7-ynyl acetate,CC(=O)OCCCCCCC#C,476.74,10,"[1, 6, 8]",3,True,CHO,ester
8406,(Z)-1-(1-ethoxyethoxy)hex-3-ene,CC/C=C\CCOC(C)OCC,476.96,10,"[1, 6, 8]",3,True,CHO,ester
8407,(E)-1-(1-ethoxyethoxy)hex-2-ene,CCC/C=C/COC(C)OCC,476.96,10,"[1, 6, 8]",3,True,CHO,ester
8408,"(E)-1,1-diethoxyhex-2-ene",CCC/C=C/C(OCC)OCC,476.96,10,"[1, 6, 8]",3,True,CHO,ester
8409,"(E)-6,6-diethoxyhex-2-ene",CCOC(CC/C=C/C)OCC,476.96,10,"[1, 6, 8]",3,True,CHO,ester
8410,propoxymethylbenzene,CCCOCC1=CC=CC=C1,477.15,10,"[1, 6, 8]",3,True,CHO,ester
8411,4-methyl-1-propan-2-ylbicyclo[3.1.0]hexan-3-one,CC1C2CC2(CC1=O)C(C)C,477.15,10,"[1, 6, 8]",3,True,CHO,ketone
8412,5-aminonaphthalen-2-ol,C1=CC2=C(C=CC(=C2)O)C(=C1)N,477.15,10,"[1, 6, 7, 8]",4,True,CHON,alcohol
8413,"1,2,3,4,5,6,7,8-octahydronaphthalene",C1CCC2=C(C1)CCCC2,477.42,10,"[1, 6]",2,True,CH,alkene
8414,"1,2,3,4,5,6,7,8-octahydroazulene",C1CCC2=C(CC1)CCC2,477.42,10,"[1, 6]",2,True,CH,alkene
8415,prop-2-enoxymethylbenzene,C=CCOCC1=CC=CC=C1,477.65,10,"[1, 6, 8]",3,True,CHO,ester
8416,1-methylazecane,CN1CCCCCCCCC1,477.87,10,"[1, 6, 7]",3,True,CHN,amine
8417,"2,2,6-trimethylhept-5-enal",CC(=CCCC(C)(C)C=O)C,477.87,10,"[1, 6, 8]",3,True,CHO,alkene
8418,"4,6-dimethyloct-7-en-3-one",CCC(=O)C(C)CC(C)C=C,478.07,10,"[1, 6, 8]",3,True,CHO,alkene
8419,4-methylidene-2-(2-methylprop-1-enyl)oxane,CC(=CC1CC(=C)CCO1)C,478.1,10,"[1, 6, 8]",3,True,CHO,ester
8420,N-(2-methylbutyl)pentan-1-amine,CCCCCNCC(C)CC,478.13,10,"[1, 6, 7]",3,True,CHN,amine
8421,"1,6-bis(ethenoxy)hexane",C=COCCCCCCOC=C,478.15,10,"[1, 6, 8]",3,True,CHO,ester
8422,"8-oxatricyclo[5.3.1.02,6]undecan-9-one",C1CC2C(C1)C3CC2CC(=O)O3,478.15,10,"[1, 6, 8]",3,True,CHO,ester
8423,"4-methyl-2,3-dihydro-1H-indene",CC1=C2CCCC2=CC=C1,478.45,10,"[1, 6]",2,True,CH,aromatic
8424,"2,2-dimethyloctan-3-one",CCCCCC(=O)C(C)(C)C,479.04,10,"[1, 6, 8]",3,True,CHO,ketone
8425,2-methylnon-2-en-4-one,CCCCCC(=O)C=C(C)C,479.15,10,"[1, 6, 8]",3,True,CHO,alkene
8426,"8,8-dimethoxytricyclo[3.2.1.02,4]oct-6-ene",COC1(C2C=CC1C3C2C3)OC,479.25,10,"[1, 6, 8]",3,True,CHO,ester
8427,"4-methyl-1,5-dioxaspiro[5.5]undecane",CC1CCOC2(O1)CCCCC2,479.65,10,"[1, 6, 8]",3,True,CHO,ester
8428,1-methyl-2-prop-2-enoxybenzene,CC1=CC=CC=C1OCC=C,479.65,10,"[1, 6, 8]",3,True,CHO,ester
8429,3-cyclopent-2-en-1-yloxycyclopentene,C1CC(C=C1)OC2CCC=C2,479.7,10,"[1, 6, 8]",3,True,CHO,ester
8430,2-pentylpyridine,CCCCCC1=CC=CC=N1,479.9,10,"[1, 6, 7]",3,True,CHN,aromatic
8431,"8,8-dimethoxytricyclo[3.2.1.02,4]octane",COC1(C2CCC1C3C2C3)OC,480.09,10,"[1, 6, 8]",3,True,CHO,ester
8432,N-butylcyclohexanamine,CCCCNC1CCCCC1,480.15,10,"[1, 6, 7]",3,True,CHN,amine
8433,2-bicyclo[2.2.1]hept-5-enylmethyl acetate,CC(=O)OCC1CC2CC1C=C2,480.15,10,"[1, 6, 8]",3,True,CHO,ester
8434,N-methylnonan-1-amine,CCCCCCCCCNC,480.15,10,"[1, 6, 7]",3,True,CHN,amine
8435,[[methyl(nitroso)amino]-phenylmethyl] acetate,CC(=O)OC(C1=CC=CC=C1)N(C)N=O,480.15,10,"[1, 6, 7, 8]",4,True,CHON,ester
8436,"2,2-dimethylpropyl 2,2-dimethylpropanoate",CC(C)(C)COC(=O)C(C)(C)C,480.16,10,"[1, 6, 8]",3,True,CHO,ester
8437,"2-methylbutan-2-yl 2,2-dimethylpropanoate",CCC(C)(C)OC(=O)C(C)(C)C,480.16,10,"[1, 6, 8]",3,True,CHO,ester
8438,(E)-5-methyl-2-propan-2-ylhex-2-enal,CC(C)C/C=C(/C=O)\C(C)C,480.22,10,"[1, 6, 8]",3,True,CHO,alkene