,Name,SMILES,Tb,C Atom,Atom,Count Unique Atom,Pass Screen,Atom2,Func. Group
4192,4-methylpent-1-en-3-ol,CC(C)C(C=C)O,398.15,6,"[1, 6, 8]",3,True,CHO,alkene
4193,3-methylpentan-3-amine,CCC(C)(CC)N,398.45,6,"[1, 6, 7]",3,True,CHN,amine
4194,methyl pent-4-enoate,COC(=O)CCC=C,398.65,6,"[1, 6, 8]",3,True,CHO,ester
4195,2-ethoxyfuran,CCOC1=CC=CO1,398.65,6,"[1, 6, 8]",3,True,CHO,ester
4196,"1,2-bis(ethenoxy)ethane",C=COCCOC=C,399.05,6,"[1, 6, 8]",3,True,CHO,ester
4197,1-(1-methylcyclopropyl)ethanone,CC(=O)C1(CC1)C,399.15,6,"[1, 6, 8]",3,True,CHO,ketone
4198,"(E)-1,1-dimethoxybut-2-ene",C/C=C/C(OC)OC,399.15,6,"[1, 6, 8]",3,True,CHO,ester
4199,methyl (E)-pent-2-enoate,CC/C=C/C(=O)OC,399.26,6,"[1, 6, 8]",3,True,CHO,ester
4200,methyl (E)-pent-3-enoate,C/C=C/CC(=O)OC,399.26,6,"[1, 6, 8]",3,True,CHO,ester
4201,"5,5-dimethyl-1,3-dioxane",CC1(COCOC1)C,399.65,6,"[1, 6, 8]",3,True,CHO,ester
4202,hex-3-yn-2-one,CCC#CC(=O)C,399.75,6,"[1, 6, 8]",3,True,CHO,alkyne
4203,"N,N,2-trimethylprop-2-enamide",CC(=C)C(=O)N(C)C,399.75,6,"[1, 6, 7, 8]",4,True,CHON,amide
4204,hex-4-yn-3-one,CCC(=O)C#CC,399.75,6,"[1, 6, 8]",3,True,CHO,alkyne
4205,N-ethenyl-N-ethylacetamide,CCN(C=C)C(=O)C,399.87,6,"[1, 6, 7, 8]",4,True,CHON,amide
4206,methyl bicyclo[1.1.0]butane-1-carboxylate,COC(=O)C12CC1C2,400.28,6,"[1, 6, 8]",3,True,CHO,ester
4207,3-(dimethoxymethoxy)prop-1-ene,COC(OC)OCC=C,400.38,6,"[1, 6, 8]",3,True,CHO,ester
4208,methyl (Z)-2-methylbut-2-enoate,C/C=C(/C)\C(=O)OC,400.85,6,"[1, 6, 8]",3,True,CHO,ester
4209,"1,1,1-trimethoxypropane",CCC(OC)(OC)OC,400.91,6,"[1, 6, 8]",3,True,CHO,ester
4210,2-ethyl-2H-furan-5-one,CCC1C=CC(=O)O1,401.0,6,"[1, 6, 8]",3,True,CHO,ester
4211,"1-methoxy-N,N,N',N'-tetramethylmethanediamine",CN(C)C(N(C)C)OC,401.15,6,"[1, 6, 7, 8]",4,True,CHON,ester
4212,"5,5-dimethylfuran-2-one",CC1(C=CC(=O)O1)C,401.24,6,"[1, 6, 8]",3,True,CHO,ester
4213,1-ethoxy-2-methylpropan-2-ol,CCOCC(C)(C)O,401.45,6,"[1, 6, 8]",3,True,CHO,ester
4214,"4-methyl-1,3-dioxepane",CC1CCCOCO1,401.65,6,"[1, 6, 8]",3,True,CHO,ester
4215,2-methoxyoxane,COC1CCCCO1,401.65,6,"[1, 6, 8]",3,True,CHO,ester
4216,"3,8-dioxatricyclo[5.1.0.02,4]octane",C1CC2C(O2)C3C1O3,402.06,6,"[1, 6, 8]",3,True,CHO,ester
4217,"5,5-dimethyloxolan-2-one",CC1(CCC(=O)O1)C,402.08,6,"[1, 6, 8]",3,True,CHO,ester
4218,"3,3-dimethyloxolan-2-one",CC1(CCOC1=O)C,402.08,6,"[1, 6, 8]",3,True,CHO,ester
4219,1-ethoxyethyl acetate,CCOC(C)OC(=O)C,402.15,6,"[1, 6, 8]",3,True,CHO,ester
4220,4-methylpent-4-en-2-ol,CC(CC(=C)C)O,402.15,6,"[1, 6, 8]",3,True,CHO,alkene
4221,"7-oxabicyclo[2.2.1]hepta-2,5-diene",C1=CC2C=CC1O2,402.15,6,"[1, 6, 8]",3,True,CHO,ester
4222,"1-methylpiperidine-2,6-dione",CN1C(=O)CCCC1=O,402.15,6,"[1, 6, 7, 8]",4,True,CHON,amide
4223,hexyl nitrite,CCCCCCON=O,402.15,6,"[1, 6, 7, 8]",4,True,CHON,ester
4224,ethyl 2-(dimethylamino)-2-oxoacetate,CCOC(=O)C(=O)N(C)C,402.15,6,"[1, 6, 7, 8]",4,True,CHON,ester
4225,2-azabicyclo[2.2.1]hept-5-ene,C1C2CNC1C=C2,402.34,6,"[1, 6, 7]",3,True,CHN,alkene
4226,7-azabicyclo[2.2.1]hept-2-ene,C1CC2C=CC1N2,402.34,6,"[1, 6, 7]",3,True,CHN,alkene
4227,"4,4-dimethoxybut-1-yne",COC(CC#C)OC,402.65,6,"[1, 6, 8]",3,True,CHO,ester
4228,hex-5-en-3-ol,CCC(CC=C)O,403.15,6,"[1, 6, 8]",3,True,CHO,alkene
4229,2-azabicyclo[2.2.1]heptane,C1CC2CC1CN2,403.18,6,"[1, 6, 7]",3,True,CHN,amine
4230,7-azabicyclo[2.2.1]heptane,C1CC2CCC1N2,403.18,6,"[1, 6, 7]",3,True,CHN,amine
4231,methyl pent-2-ynoate,CCC#CC(=O)OC,404.1,6,"[1, 6, 8]",3,True,CHO,ester
4232,2-[2-(oxiran-2-yl)ethyl]oxirane,C1C(O1)CCC2CO2,404.26,6,"[1, 6, 8]",3,True,CHO,ester
4233,2-oxabicyclo[2.2.1]heptan-3-one,C1CC2CC1C(=O)O2,404.31,6,"[1, 6, 8]",3,True,CHO,ester
4234,"4,4-dimethyl-1,3-dioxane",CC1(CCOCO1)C,404.9,6,"[1, 6, 8]",3,True,CHO,ester
4235,[(E)-but-2-enyl] acetate,C/C=C/COC(=O)C,405.15,6,"[1, 6, 8]",3,True,CHO,ester
4236,2-butoxyacetaldehyde,CCCCOCC=O,405.65,6,"[1, 6, 8]",3,True,CHO,ester
4237,"4,6-dimethyl-1,3-dioxane",CC1CC(OCO1)C,405.66,6,"[1, 6, 8]",3,True,CHO,ester
4238,"2,6-dimethyl-1,4-dioxane",CC1COCC(O1)C,405.66,6,"[1, 6, 8]",3,True,CHO,ester
4239,"N,N-bis(prop-2-enyl)nitrous amide",C=CCN(CC=C)N=O,406.08,6,"[1, 6, 7, 8]",4,True,CHON,alkene
4240,6-methyloxan-2-one,CC1CCCC(=O)O1,406.11,6,"[1, 6, 8]",3,True,CHO,ester
4241,4-methyloxan-2-one,CC1CCOC(=O)C1,406.11,6,"[1, 6, 8]",3,True,CHO,ester
4242,3-methyloxan-2-one,CC1CCCOC1=O,406.11,6,"[1, 6, 8]",3,True,CHO,ester
4243,3-methylidenepentan-2-one,CCC(=C)C(=O)C,406.15,6,"[1, 6, 8]",3,True,CHO,alkene
4244,"(E)-1,2-diethoxyethene",CCO/C=C/OCC,406.65,6,"[1, 6, 8]",3,True,CHO,ester
4245,"4,5-dimethyl-1,3-dioxane",CC1COCOC1C,407.15,6,"[1, 6, 8]",3,True,CHO,ester
4246,"2,4,5-trimethyl-1,3-oxazole",CC1=C(OC(=N1)C)C,407.15,6,"[1, 6, 7, 8]",4,True,CHON,aromatic
4247,(E)-4-(dimethylamino)but-3-en-2-one,CC(=O)/C=C/N(C)C,407.35,6,"[1, 6, 7, 8]",4,True,CHON,ketone
4248,2-methylpent-1-en-3-ol,CCC(C(=C)C)O,407.65,6,"[1, 6, 8]",3,True,CHO,alkene
4249,"(E)-1,3,3-trimethoxyprop-1-ene",CO/C=C/C(OC)OC,407.86,6,"[1, 6, 8]",3,True,CHO,ester
4250,(E)-1-(dimethoxymethoxy)prop-1-ene,C/C=C/OC(OC)OC,407.86,6,"[1, 6, 8]",3,True,CHO,ester
4251,"2-methyl-4,7-dihydro-1,3-dioxepine",CC1OCC=CCO1,408.15,6,"[1, 6, 8]",3,True,CHO,ester
4252,"2,3-dimethoxybuta-1,3-diene",COC(=C)C(=C)OC,408.15,6,"[1, 6, 8]",3,True,CHO,ester
4253,2-methylpentan-3-amine,CCC(C(C)C)N,408.53,6,"[1, 6, 7]",3,True,CHN,amine
4254,1-methylpyrrole-2-carboxylic acid,CN1C=CC=C1C(=O)O,409.15,6,"[1, 6, 7, 8]",4,True,CHON,aromatic
4255,"N,N-dimethylcyclopropanecarboxamide",CN(C)C(=O)C1CC1,409.93,6,"[1, 6, 7, 8]",4,True,CHON,amide
4256,1-(aziridin-1-yl)butan-1-one,CCCC(=O)N1CC1,410.33,6,"[1, 6, 7, 8]",4,True,CHON,amide
4257,prop-2-ynyl propanoate,CCC(=O)OCC#C,410.65,6,"[1, 6, 8]",3,True,CHO,ester
4258,1-methoxy-2-methylbutan-2-ol,CCC(C)(COC)O,410.65,6,"[1, 6, 8]",3,True,CHO,ester
4259,"2-propan-2-yl-4,5-dihydro-1,3-oxazole",CC(C)C1=NCCO1,410.65,6,"[1, 6, 7, 8]",4,True,CHON,ester
4260,5-ethyl-3H-furan-2-one,CCC1=CCC(=O)O1,410.65,6,"[1, 6, 8]",3,True,CHO,ester
4261,(Z)-2-methylpent-2-enenitrile,CC/C=C(/C)\C#N,411.65,6,"[1, 6, 7]",3,True,CHN,alkene
4262,"2,3-dioxabicyclo[2.2.2]oct-5-ene",C1CC2C=CC1OO2,411.96,6,"[1, 6, 8]",3,True,CHO,alkene
4263,(E)-3-ethoxy-2-methylprop-2-enal,CCO/C=C(\C)/C=O,412.0,6,"[1, 6, 8]",3,True,CHO,ester
4264,"N,N-dimethylpyrrol-1-amine",CN(C)N1C=CC=C1,412.15,6,"[1, 6, 7]",3,True,CHN,aromatic
4265,(5E)-5-ethylidenefuran-2-one,C/C=C/1\C=CC(=O)O1,412.31,6,"[1, 6, 8]",3,True,CHO,ester
4266,3-methylpent-1-en-4-yn-3-ol,CC(C=C)(C#C)O,412.63,6,"[1, 6, 8]",3,True,CHO,alkene
4267,"2,3-dioxabicyclo[2.2.2]octane",C1CC2CCC1OO2,412.8,6,"[1, 6, 8]",3,True,CHO,ester
4268,"6,7-dioxabicyclo[3.2.1]octane",C1CC2CC(C1)OO2,412.8,6,"[1, 6, 8]",3,True,CHO,ester
4269,(E)-3-methylpent-3-en-1-ol,C/C=C(\C)/CCO,413.15,6,"[1, 6, 8]",3,True,CHO,alkene
4270,cyclopentylmethanamine,C1CCC(C1)CN,413.15,6,"[1, 6, 7]",3,True,CHN,amine
4271,5-methylcyclopent-2-en-1-one,CC1CC=CC1=O,413.15,6,"[1, 6, 8]",3,True,CHO,alkene
4272,(5E)-5-ethylideneoxolan-2-one,C/C=C/1\CCC(=O)O1,413.15,6,"[1, 6, 8]",3,True,CHO,ester
4273,1-ethoxybutan-2-one,CCC(=O)COCC,413.17,6,"[1, 6, 8]",3,True,CHO,ester
4274,"2,3-dimethylidene-1,4-dioxane",C=C1C(=C)OCCO1,413.32,6,"[1, 6, 8]",3,True,CHO,ester
4275,1-prop-2-enylimidazole,C=CCN1C=CN=C1,413.7,6,"[1, 6, 7]",3,True,CHN,alkene
4276,ethyl 2-methoxyprop-2-enoate,CCOC(=O)C(=C)OC,414.08,6,"[1, 6, 8]",3,True,CHO,ester
4277,"4-ethyl-1,3-dioxane",CCC1CCOCO1,414.15,6,"[1, 6, 8]",3,True,CHO,ester
4278,"N,N',N'-trimethylpropane-1,3-diamine",CNCCCN(C)C,414.15,6,"[1, 6, 7]",3,True,CHN,amine
4279,2-methoxyethyl prop-2-enoate,COCCOC(=O)C=C,414.2,6,"[1, 6, 8]",3,True,CHO,ester
4280,tert-butyl ethaneperoxoate,CC(=O)OOC(C)(C)C,414.29,6,"[1, 6, 8]",3,True,CHO,ester
4281,methyl 2-methoxy-2-methylpropanoate,CC(C)(C(=O)OC)OC,414.29,6,"[1, 6, 8]",3,True,CHO,ester
4282,4-acetyloxolan-2-one,CC(=O)C1CC(=O)OC1,414.65,6,"[1, 6, 8]",3,True,CHO,ester
4283,"4-methyl-2,3-dihydropyran-6-one",CC1=CC(=O)OCC1,414.92,6,"[1, 6, 8]",3,True,CHO,ester
4284,"6-methyl-3,4-dihydropyran-2-one",CC1=CCCC(=O)O1,414.92,6,"[1, 6, 8]",3,True,CHO,ester
4285,"1,1-bis(prop-2-enyl)hydrazine",C=CCN(CC=C)N,415.21,6,"[1, 6, 7]",3,True,CHN,alkene
4286,"4-ethenyl-1,3-dioxane",C=CC1CCOCO1,415.65,6,"[1, 6, 8]",3,True,CHO,ester
4287,N-(2-hydroxyethyl)-3-methoxypropanamide,COCCC(=O)NCCO,415.65,6,"[1, 6, 7, 8]",4,True,CHON,ester
4288,"N,N-dimethyl-N'-prop-2-ynylmethanimidamide",CN(C)C=NCC#C,416.12,6,"[1, 6, 7]",3,True,CHN,alkyne
4289,3-methylcyclopentan-1-one,CC1CCC(=O)C1,416.15,6,"[1, 6, 8]",3,True,CHO,ketone
4290,1-propan-2-ylpyrazole,CC(C)N1C=CC=N1,416.15,6,"[1, 6, 7]",3,True,CHN,aromatic
4291,2-propan-2-yloxypropan-1-ol,CC(C)OC(C)CO,416.65,6,"[1, 6, 8]",3,True,CHO,ester
4292,"N',N',2-trimethylpropane-1,3-diamine",CC(CN)CN(C)C,416.65,6,"[1, 6, 7]",3,True,CHN,amine
4293,2-(ethylamino)-2-methylpropanenitrile,CCNC(C)(C)C#N,416.65,6,"[1, 6, 7]",3,True,CHN,amine
4294,1-propylimidazole,CCCN1C=CN=C1,417.02,6,"[1, 6, 7]",3,True,CHN,aromatic
4295,2-methoxypropyl acetate,CC(COC(=O)C)OC,417.08,6,"[1, 6, 8]",3,True,CHO,ester
4296,6-methylpiperidin-2-one,CC1CCCC(=O)N1,417.15,6,"[1, 6, 7, 8]",4,True,CHON,amide
4297,1-pyrrol-1-ylethanone,CC(=O)N1C=CC=C1,417.19,6,"[1, 6, 7, 8]",4,True,CHON,aromatic
4298,ethyl 3-methoxypropanoate,CCOC(=O)CCOC,417.52,6,"[1, 6, 8]",3,True,CHO,ester
4299,ethoxymethyl propanoate,CCC(=O)OCOCC,417.52,6,"[1, 6, 8]",3,True,CHO,ester
4300,(E)-N-ethylbut-2-en-1-imine,CCN=C/C=C/C,417.72,6,"[1, 6, 7]",3,True,CHN,alkene
4301,3-ethoxy-2-oxobutanal,CCOC(C)C(=O)C=O,418.15,6,"[1, 6, 8]",3,True,CHO,ester
4302,"2-N-methylpyridine-2,3-diamine",CNC1=C(C=CC=N1)N,418.15,6,"[1, 6, 7]",3,True,CHN,aromatic
4303,"3-ethoxy-1,1-dihydroxybutan-2-one",CCOC(C)C(=O)C(O)O,418.15,6,"[1, 6, 8]",3,True,CHO,ester
4304,hex-5-yn-3-ol,CCC(CC#C)O,418.74,6,"[1, 6, 8]",3,True,CHO,alkyne
4305,1-pyrrolidin-1-ylethanone,CC(=O)N1CCCC1,418.87,6,"[1, 6, 7, 8]",4,True,CHON,amide
4306,1-(furan-2-yl)ethanamine,CC(C1=CC=CO1)N,419.15,6,"[1, 6, 7, 8]",4,True,CHON,aromatic
4307,hex-5-yn-1-ol,C#CCCCCO,419.18,6,"[1, 6, 8]",3,True,CHO,alkyne
4308,methyl 3-methoxy-2-methylpropanoate,CC(COC)C(=O)OC,420.15,6,"[1, 6, 8]",3,True,CHO,ester
4309,"2-propyl-4,5-dihydro-1,3-oxazole",CCCC1=NCCO1,420.15,6,"[1, 6, 7, 8]",4,True,CHON,ester
4310,2-methylbutyl formate,CCC(C)COC=O,420.65,6,"[1, 6, 8]",3,True,CHO,ester
4311,2-butoxyethanamine,CCCCOCCN,422.15,6,"[1, 6, 7, 8]",4,True,CHON,ester
4312,(E)-hex-4-en-1-yn-3-ol,C/C=C/C(C#C)O,422.15,6,"[1, 6, 8]",3,True,CHO,alkene
4313,3-propan-2-yloxypropan-1-amine,CC(C)OCCCN,423.15,6,"[1, 6, 7, 8]",4,True,CHON,ester
4314,"2,3-dimethylfuran",CC1=C(OC=C1)C,423.15,6,"[1, 6, 8]",3,True,CHO,aromatic
4315,"2,2,5-trimethyl-1,3-oxazolidine",CC1CNC(O1)(C)C,423.23,6,"[1, 6, 7, 8]",4,True,CHON,ester
4316,dioxocane,C1CCCOOCC1,423.54,6,"[1, 6, 8]",3,True,CHO,ester
4317,"1,3-dioxocane",C1CCOCOCC1,423.54,6,"[1, 6, 8]",3,True,CHO,ester
4318,hex-5-yn-2-ol,CC(CCC#C)O,425.15,6,"[1, 6, 8]",3,True,CHO,alkyne
4319,1-ethyl-3-methylpyrazole,CCN1C=CC(=N1)C,425.15,6,"[1, 6, 7]",3,True,CHN,aromatic
4320,3-methylpent-4-en-1-ol,CC(CCO)C=C,425.3,6,"[1, 6, 8]",3,True,CHO,alkene
4321,"N,N-dimethyl-N'-propan-2-ylmethanimidamide",CC(C)N=CN(C)C,425.56,6,"[1, 6, 7]",3,True,CHN,amine
4322,"3-methoxy-N,N-dimethylpropanamide",CN(C)C(=O)CCOC,425.61,6,"[1, 6, 7, 8]",4,True,CHON,ester
4323,(1-methylpyrrolidin-2-yl)methanamine,CN1CCCC1CN,425.65,6,"[1, 6, 7]",3,True,CHN,amine
4324,methyl 3-(dimethylamino)propanoate,CN(C)CCC(=O)OC,426.15,6,"[1, 6, 7, 8]",4,True,CHON,ester
4325,2-[(2-methylpropan-2-yl)oxy]ethanol,CC(C)(C)OCCO,426.15,6,"[1, 6, 8]",3,True,CHO,ester
4326,(E)-2-methylpent-2-enenitrile,CC/C=C(\C)/C#N,426.15,6,"[1, 6, 7]",3,True,CHN,alkene
4327,"1,2-dimethyl-5,6-dihydro-4H-pyrimidine",CC1=NCCCN1C,427.11,6,"[1, 6, 7]",3,True,CHN,amine
4328,"2,3,3a,5,6,6a-hexahydrofuro[3,2-b]furan",C1COC2C1OCC2,427.15,6,"[1, 6, 8]",3,True,CHO,ester
4329,"cyclohexa-2,5-dien-1-one",C1C=CC(=O)C=C1,427.24,6,"[1, 6, 8]",3,True,CHO,alkene
4330,"cyclohexa-2,4-dien-1-one",C1C=CC=CC1=O,427.24,6,"[1, 6, 8]",3,True,CHO,alkene
4331,"3,5-dimethylmorpholine",CC1COCC(N1)C,427.26,6,"[1, 6, 7, 8]",4,True,CHON,ester
4332,2-methoxypiperidine,COC1CCCCN1,427.4,6,"[1, 6, 7, 8]",4,True,CHON,ester
4333,2-methoxypentan-3-one,CCC(=O)C(C)OC,427.65,6,"[1, 6, 8]",3,True,CHO,ester
4334,hex-2-en-3-ol,CCCC(=CC)O,428.15,6,"[1, 6, 8]",3,True,CHO,alkene
4335,N-methyl-1-(oxolan-2-yl)methanamine,CNCC1CCCO1,428.65,6,"[1, 6, 7, 8]",4,True,CHON,ester
4336,2-butan-2-yloxyethanol,CCC(C)OCCO,428.65,6,"[1, 6, 8]",3,True,CHO,ester
4337,hex-5-en-1-ol,C=CCCCCO,428.9,6,"[1, 6, 8]",3,True,CHO,alkene
4338,"2-propyl-1,3-dioxolane",CCCC1OCCO1,429.15,6,"[1, 6, 8]",3,True,CHO,ester
4339,"(4E)-hexa-1,4-dien-3-ol",C/C=C/C(C=C)O,429.46,6,"[1, 6, 8]",3,True,CHO,alkene
4340,1-ethylpiperazine,CCN1CCNCC1,429.65,6,"[1, 6, 7]",3,True,CHN,amine
4341,"4-methoxy-3,6-dihydro-2H-pyran",COC1=CCOCC1,429.65,6,"[1, 6, 8]",3,True,CHO,ester
4342,"2-methoxyethyl N,N-dimethylcarbamate",CN(C)C(=O)OCCOC,429.96,6,"[1, 6, 7, 8]",4,True,CHON,ester
4343,4-methylpent-3-en-1-ol,CC(=CCCO)C,430.65,6,"[1, 6, 8]",3,True,CHO,alkene
4344,(2-ethylcyclopropyl)methanol,CCC1CC1CO,431.13,6,"[1, 6, 8]",3,True,CHO,alcohol
4345,"N'-butylethane-1,2-diamine",CCCCNCCN,431.15,6,"[1, 6, 7]",3,True,CHN,amine
4346,(Z)-hex-4-en-1-ol,C/C=C\CCCO,431.65,6,"[1, 6, 8]",3,True,CHO,alkene
4347,1-prop-2-enylpyrazole,C=CCN1C=CC=N1,432.15,6,"[1, 6, 7]",3,True,CHN,alkene
4348,N-(2-methylbutan-2-yl)formamide,CCC(C)(C)NC=O,432.48,6,"[1, 6, 7, 8]",4,True,CHON,amide
4349,3-methoxypiperidine,COC1CCCNC1,432.65,6,"[1, 6, 7, 8]",4,True,CHON,ester
4350,(E)-3-methylpent-3-en-2-ol,C/C=C(\C)/C(C)O,432.66,6,"[1, 6, 8]",3,True,CHO,alkene
4351,hexanedial,C(CCC=O)CC=O,434.2,6,"[1, 6, 8]",3,True,CHO,aldehyde
4352,"N'-propan-2-ylpropane-1,3-diamine",CC(C)NCCCN,434.65,6,"[1, 6, 7]",3,True,CHN,amine
4353,N-butan-2-yl-N-(methoxymethyl)nitrous amide,CCC(C)N(COC)N=O,434.7,6,"[1, 6, 7, 8]",4,True,CHON,ester
4354,2-methylpent-3-yn-2-ol,CC#CC(C)(C)O,434.83,6,"[1, 6, 8]",3,True,CHO,alkyne
4355,methyl 2-propoxyacetate,CCCOCC(=O)OC,434.9,6,"[1, 6, 8]",3,True,CHO,ester
4356,N-butyl-N-(methoxymethyl)nitrous amide,CCCCN(COC)N=O,435.14,6,"[1, 6, 7, 8]",4,True,CHON,ester
4357,1-methylpyridin-4-one,CN1C=CC(=O)C=C1,435.41,6,"[1, 6, 7, 8]",4,True,CHON,aromatic
4358,"6,8-dioxabicyclo[3.2.1]octan-7-one",C1CC2C(=O)OC(C1)O2,435.53,6,"[1, 6, 8]",3,True,CHO,ester
4359,methyl 4-methoxybutanoate,COCCCC(=O)OC,436.15,6,"[1, 6, 8]",3,True,CHO,ester
4360,2-methoxyethyl prop-2-eneperoxoate,COCCOOC(=O)C=C,436.62,6,"[1, 6, 8]",3,True,CHO,ester
4361,3-(dimethylamino)-2-methylpropan-1-ol,CC(CN(C)C)CO,436.65,6,"[1, 6, 7, 8]",4,True,CHON,alcohol
4362,hex-5-enenitrile,C=CCCCC#N,436.65,6,"[1, 6, 7]",3,True,CHN,alkene
4363,1-methylpiperidin-4-one,CN1CCC(=O)CC1,437.09,6,"[1, 6, 7, 8]",4,True,CHON,ketone
4364,1-methylpiperidin-3-one,CN1CCCC(=O)C1,437.09,6,"[1, 6, 7, 8]",4,True,CHON,ketone
4365,N-propan-2-ylprop-2-enamide,CC(C)NC(=O)C=C,437.16,6,"[1, 6, 7, 8]",4,True,CHON,alkene
4366,"(2E,4E)-hexa-2,4-dien-1-ol",C/C=C/C=C/CO,437.38,6,"[1, 6, 8]",3,True,CHO,alkene
4367,hex-4-yn-3-ol,CCC(C#CC)O,437.62,6,"[1, 6, 8]",3,True,CHO,alkyne
4368,N-tert-butylacetamide,CC(=O)NC(C)(C)C,437.69,6,"[1, 6, 7, 8]",4,True,CHON,amide
4369,"N,2,2-trimethylpropanamide",CC(C)(C)C(=O)NC,437.69,6,"[1, 6, 7, 8]",4,True,CHON,amide
4370,"hexa-1,5-diene-3,4-dione",C=CC(=O)C(=O)C=C,437.98,6,"[1, 6, 8]",3,True,CHO,alkene
4371,hex-2-yn-1-ol,CCCC#CCO,438.06,6,"[1, 6, 8]",3,True,CHO,alkyne
4372,"2-prop-1-en-2-yl-4,5-dihydro-1,3-oxazole",CC(=C)C1=NCCO1,438.18,6,"[1, 6, 7, 8]",4,True,CHON,ester
4373,"1,1,2,3,3-pentamethylguanidine",CN=C(N(C)C)N(C)C,438.32,6,"[1, 6, 7]",3,True,CHN,amine
4374,2-butoxyacetic acid,CCCCOCC(=O)O,438.45,6,"[1, 6, 8]",3,True,CHO,carboxylic_acid
4375,3-methylpentanedial,CC(CC=O)CC=O,439.15,6,"[1, 6, 8]",3,True,CHO,aldehyde
4376,"methyl 3,3-dimethoxypropanoate",COC(CC(=O)OC)OC,439.15,6,"[1, 6, 8]",3,True,CHO,ester
4377,1-cyclobutylethanol,CC(C1CCC1)O,439.63,6,"[1, 6, 8]",3,True,CHO,alcohol
4378,"N,N-bis(2-oxopropyl)nitrous amide",CC(=O)CN(CC(=O)C)N=O,439.65,6,"[1, 6, 7, 8]",4,True,CHON,ketone
4379,"4-methyl-2,6,7-trioxabicyclo[2.2.2]octane",CC12COC(OC1)OC2,439.99,6,"[1, 6, 8]",3,True,CHO,ester
4380,1-ethylcyclobutan-1-ol,CCC1(CCC1)O,440.31,6,"[1, 6, 8]",3,True,CHO,alcohol
4381,N-methylpentanamide,CCCCC(=O)NC,440.92,6,"[1, 6, 7, 8]",4,True,CHON,amide
4382,"N,N'-dimethylbutane-1,4-diamine",CNCCCCNC,441.15,6,"[1, 6, 7]",3,True,CHN,amine
4383,"6-methoxy-2,3,4,5-tetrahydropyridine",COC1=NCCCC1,441.36,6,"[1, 6, 7, 8]",4,True,CHON,ester
4384,"(E)-N,N'-dimethylbut-2-ene-1,4-diamine",CNC/C=C/CNC,441.38,6,"[1, 6, 7]",3,True,CHN,alkene
4385,ethyl N-prop-2-enylcarbamate,CCOC(=O)NCC=C,441.95,6,"[1, 6, 7, 8]",4,True,CHON,ester
4386,tert-butyl N-methylcarbamate,CC(C)(C)OC(=O)NC,442.04,6,"[1, 6, 7, 8]",4,True,CHON,ester
4387,methyl pyrrole-1-carboxylate,COC(=O)N1C=CC=C1,442.15,6,"[1, 6, 7, 8]",4,True,CHON,ester
4388,"(2E,4E)-hexa-2,4-dienedial",C(=C/C=O)\C=C\C=O,442.52,6,"[1, 6, 8]",3,True,CHO,alkene
4389,2-[2-aminoethyl(2-hydroxyethyl)amino]ethanol,C(CN(CCO)CCO)N,443.15,6,"[1, 6, 7, 8]",4,True,CHON,alcohol
4390,methyl 2-acetyloxypropanoate,CC(C(=O)OC)OC(=O)C,443.65,6,"[1, 6, 8]",3,True,CHO,ester
4391,butyl 2-oxoacetate,CCCCOC(=O)C=O,443.76,6,"[1, 6, 8]",3,True,CHO,ester
4392,"7,8,9-trioxabicyclo[4.2.1]nonane",C1CCC2OC(C1)OO2,444.02,6,"[1, 6, 8]",3,True,CHO,ester
4393,3-propoxypropan-1-ol,CCCOCCCO,444.15,6,"[1, 6, 8]",3,True,CHO,ester
4394,2-ethoxyoxolane,CCOC1CCCO1,444.15,6,"[1, 6, 8]",3,True,CHO,ester
4395,"N'-propylpropane-1,3-diamine",CCCNCCCN,444.65,6,"[1, 6, 7]",3,True,CHN,amine
4396,1-(aziridin-1-yl)but-3-en-2-ol,C=CC(CN1CC1)O,444.88,6,"[1, 6, 7, 8]",4,True,CHON,alkene
4397,"1,3-dimethyl-1,3-diazinan-2-one",CN1CCCN(C1=O)C,445.26,6,"[1, 6, 7, 8]",4,True,CHON,amide
4398,ethyl 3-(methylamino)propanoate,CCOC(=O)CCNC,445.27,6,"[1, 6, 7, 8]",4,True,CHON,ester
4399,methyl N-butylcarbamate,CCCCNC(=O)OC,445.27,6,"[1, 6, 7, 8]",4,True,CHON,ester
4400,"3-methylpentane-2,4-dione",CC(C(=O)C)C(=O)C,446.19859,6,"[1, 6, 8]",3,True,CHO,ketone
4401,ethyl N-propan-2-ylcarbamate,CCOC(=O)NC(C)C,447.15,6,"[1, 6, 7, 8]",4,True,CHON,ester
4402,"(2E,4E)-hexa-2,4-dienenitrile",C/C=C/C=C/C#N,447.28,6,"[1, 6, 7]",3,True,CHN,alkene
4403,4-amino-4-methylpentan-2-ol,CC(CC(C)(C)N)O,447.5,6,"[1, 6, 7, 8]",4,True,CHON,alcohol
4404,2-prop-2-enoxypropan-1-ol,CC(CO)OCC=C,447.72,6,"[1, 6, 8]",3,True,CHO,ester
4405,1-prop-2-enoxypropan-2-ol,CC(COCC=C)O,447.72,6,"[1, 6, 8]",3,True,CHO,ester
4406,2-but-3-en-2-yloxyethanol,CC(C=C)OCCO,447.72,6,"[1, 6, 8]",3,True,CHO,ester
4407,N-[3-(dimethylamino)propyl]formamide,CN(C)CCCNC=O,448.15,6,"[1, 6, 7, 8]",4,True,CHON,amide
4408,"3-methoxy-2,2-dimethylpropan-1-ol",CC(C)(CO)COC,448.25,6,"[1, 6, 8]",3,True,CHO,ester
4409,3-oxobutan-2-yl acetate,CC(C(=O)C)OC(=O)C,448.53,6,"[1, 6, 8]",3,True,CHO,ester
4410,prop-2-enyl 2-hydroxypropanoate,CC(C(=O)OCC=C)O,448.65,6,"[1, 6, 8]",3,True,CHO,ester
4411,"N,N,2-trimethylpropanamide",CC(C)C(=O)N(C)C,448.65,6,"[1, 6, 7, 8]",4,True,CHON,amide
4412,"(E)-hex-3-ene-2,5-dione",CC(=O)/C=C/C(=O)C,448.78,6,"[1, 6, 8]",3,True,CHO,alkene
4413,"2,3-dimethylpiperazine",CC1C(NCCN1)C,448.86,6,"[1, 6, 7]",3,True,CHN,amine
4414,3-oxobutyl acetate,CC(=O)CCOC(=O)C,448.97,6,"[1, 6, 8]",3,True,CHO,ester
4415,methyl 3-oxopentanoate,CCC(=O)CC(=O)OC,448.97,6,"[1, 6, 8]",3,True,CHO,ester
4416,2-oxopropyl propanoate,CCC(=O)OCC(=O)C,448.97,6,"[1, 6, 8]",3,True,CHO,ester
4417,3-methylidenecyclobutane-1-carbonitrile,C=C1CC(C1)C#N,449.13,6,"[1, 6, 7]",3,True,CHN,alkene
4418,methyl 3-methoxybut-2-enoate,CC(=CC(=O)OC)OC,449.15,6,"[1, 6, 8]",3,True,CHO,ester
4419,7-oxabicyclo[4.1.0]heptan-2-one,C1CC2C(O2)C(=O)C1,449.4,6,"[1, 6, 8]",3,True,CHO,ester
4420,1-morpholin-4-ylethanone,CC(=O)N1CCOCC1,450.09,6,"[1, 6, 7, 8]",4,True,CHON,ester
4421,"4,5-dimethylpyrimidine",CC1=CN=CN=C1C,450.15,6,"[1, 6, 7]",3,True,CHN,aromatic
4422,"2,6-dimethyl-4-nitrosomorpholine",CC1CN(CC(O1)C)N=O,450.28,6,"[1, 6, 7, 8]",4,True,CHON,ester