,Name,SMILES,Tb,C Atom,Atom,Count Unique Atom,Pass Screen,Atom2,Func. Group
9038,3-[4-(3-aminopropoxy)butoxy]propan-1-amine,C(CCOCCCN)COCCCN,571.15,10,"[1, 6, 7, 8]",4,True,CHON,ester
9039,"8-methylnonane-1,2-diamine",CC(C)CCCCCC(CN)N,572.58,10,"[1, 6, 7]",3,True,CHN,amine
9040,"5-methylnonane-1,9-diamine",CC(CCCCN)CCCCN,573.02,10,"[1, 6, 7]",3,True,CHN,amine
9041,8-methylnonanoic acid,CC(C)CCCCCCC(=O)O,573.47,10,"[1, 6, 8]",3,True,CHO,alcohol
9042,2-methylnonanoic acid,CCCCCCCC(C)C(=O)O,573.47,10,"[1, 6, 8]",3,True,CHO,alcohol
9043,2-propylheptanoic acid,CCCCCC(CCC)C(=O)O,573.47,10,"[1, 6, 8]",3,True,CHO,alcohol
9044,3-methylnonanoic acid,CCCCCCC(C)CC(=O)O,573.47,10,"[1, 6, 8]",3,True,CHO,alcohol
9045,6-(1-ethoxyethoxy)hex-2-yn-1-ol,CCOC(C)OCCCC#CCO,573.98,10,"[1, 6, 8]",3,True,CHO,ester
9046,methyl 3-(2-oxocyclohexyl)propanoate,COC(=O)CCC1CCCCC1=O,573.99,10,"[1, 6, 8]",3,True,CHO,ester
9047,"decane-1,10-diol",C(CCCCCO)CCCCO,574.0,10,"[1, 6, 8]",3,True,CHO,alcohol
9048,6-hydroxydecan-5-one,CCCCC(C(=O)CCCC)O,574.01,10,"[1, 6, 8]",3,True,CHO,alcohol
9049,N-methyl-1-phenylpropan-2-amine,CC(CC1=CC=CC=C1)NC,574.65,10,"[1, 6, 7]",3,True,CHN,aromatic
9050,methyl 3-[4-acetyloxybutyl(nitroso)amino]propanoate,CC(=O)OCCCCN(CCC(=O)OC)N=O,575.15,10,"[1, 6, 7, 8]",4,True,CHON,ester
9051,"2,2-dimethyl-3-(2-methylprop-1-enyl)cyclopropane-1-carboxylic acid",CC(=CC1C(C1(C)C)C(=O)O)C,575.59,10,"[1, 6, 8]",3,True,CHO,alkene
9052,"dipropyl 2,3-dihydroxybutanedioate",CCCOC(=O)C(C(C(=O)OCCC)O)O,576.15,10,"[1, 6, 8]",3,True,CHO,ester
9053,2-methylquinolin-7-amine,CC1=NC2=C(C=C1)C=CC(=C2)N,577.15,10,"[1, 6, 7]",3,True,CHN,aromatic
9054,"1,7,7-trimethylbicyclo[2.2.1]heptane-2,3-dione",CC1(C2CCC1(C(=O)C2=O)C)C,577.6,10,"[1, 6, 8]",3,True,CHO,ketone
9055,"1,3,3-trimethylbicyclo[2.2.1]heptane-2,5-dione",CC1(C2CC(C1=O)(CC2=O)C)C,577.6,10,"[1, 6, 8]",3,True,CHO,ketone
9056,2-methylquinolin-6-ol,CC1=NC2=C(C=C1)C=C(C=C2)O,577.65,10,"[1, 6, 7, 8]",4,True,CHON,aromatic
9057,(E)-dec-2-enoic acid,CCCCCCC/C=C/C(=O)O,578.07,10,"[1, 6, 8]",3,True,CHO,alkene
9058,dec-3-enoic acid,CCCCCCC=CCC(=O)O,578.07,10,"[1, 6, 8]",3,True,CHO,alkene
9059,(E)-dec-4-enoic acid,CCCCC/C=C/CCC(=O)O,578.07,10,"[1, 6, 8]",3,True,CHO,alkene
9060,(E)-dec-5-enoic acid,CCCC/C=C/CCCC(=O)O,578.07,10,"[1, 6, 8]",3,True,CHO,alkene
9061,(E)-dec-6-enoic acid,CCC/C=C/CCCCC(=O)O,578.07,10,"[1, 6, 8]",3,True,CHO,alkene
9062,ethyl 2-oxocycloheptane-1-carboxylate,CCOC(=O)C1CCCCCC1=O,578.26,10,"[1, 6, 8]",3,True,CHO,ester
9063,2-hydroxyheptyl propanoate,CCCCCC(COC(=O)CC)O,578.36,10,"[1, 6, 8]",3,True,CHO,ester
9064,methyl (E)-3-[propan-2-yl-(propan-2-ylideneamino)amino]prop-2-enoate,CC(C)N(/C=C/C(=O)OC)N=C(C)C,579.34,10,"[1, 6, 7, 8]",4,True,CHON,ester
9065,"2,2,5,5-tetramethylcyclohexane-1,3-dione",CC1(CC(=O)C(C(=O)C1)(C)C)C,579.4,10,"[1, 6, 8]",3,True,CHO,ketone
9066,"3,3,6,6-tetramethylcyclohexane-1,2-dione",CC1(CCC(C(=O)C1=O)(C)C)C,579.4,10,"[1, 6, 8]",3,True,CHO,ketone
9067,"4,4,6,6-tetramethylcyclohexane-1,3-dione",CC1(CC(C(=O)CC1=O)(C)C)C,579.4,10,"[1, 6, 8]",3,True,CHO,ketone
9068,"1,2,3,4-tetrahydronaphthalen-2-amine",C1CC2=CC=CC=C2CC1N,579.65,10,"[1, 6, 7]",3,True,CHN,aromatic
9069,"2-tert-butylcyclohexane-1,3-dione",CC(C)(C)C1C(=O)CCCC1=O,580.36,10,"[1, 6, 8]",3,True,CHO,ketone
9070,6-oxo-3-prop-1-en-2-ylheptanenitrile,CC(=C)C(CCC(=O)C)CC#N,580.47,10,"[1, 6, 7, 8]",4,True,CHON,alkene
9071,"(2Z)-3,7-dimethylocta-2,6-dienoic acid",CC(=CCC/C(=C\C(=O)O)/C)C,581.99,10,"[1, 6, 8]",3,True,CHO,alkene
9072,"(2E,4E)-4-ethylocta-2,4-dienoic acid",CCC/C=C(\CC)/C=C/C(=O)O,582.11,10,"[1, 6, 8]",3,True,CHO,alkene
9073,"(2E,4E)-deca-2,4-dienoic acid",CCCCC/C=C/C=C/C(=O)O,582.23,10,"[1, 6, 8]",3,True,CHO,alkene
9074,"3,3-dimethylbicyclo[2.2.1]heptane-2-carboxylic acid",CC1(C2CCC(C2)C1C(=O)O)C,582.56,10,"[1, 6, 8]",3,True,CHO,alcohol
9075,"1-methyl-3,3-di(propan-2-yl)azetidine-2,4-dione",CC(C)C1(C(=O)N(C1=O)C)C(C)C,582.58,10,"[1, 6, 7, 8]",4,True,CHON,amide
9076,"1,4,9,12-tetraoxadispiro[4.2.48.25]tetradecane",C1CC2(CCC13OCCO3)OCCO2,582.92,10,"[1, 6, 8]",3,True,CHO,ester
9077,"tricyclo[4.2.2.02,5]dec-7-ene-3,4-dione",C1CC2C=CC1C3C2C(=O)C3=O,583.02,10,"[1, 6, 8]",3,True,CHO,alkene
9078,"dimethyl cyclohexene-1,2-dicarboxylate",COC(=O)C1=C(CCCC1)C(=O)OC,583.15,10,"[1, 6, 8]",3,True,CHO,ester
9079,(2-methyl-5-oxocyclopenten-1-yl) butanoate,CCCC(=O)OC1=C(CCC1=O)C,583.51,10,"[1, 6, 8]",3,True,CHO,ester
9080,tert-butyl 4-oxopiperidine-1-carboxylate,CC(C)(C)OC(=O)N1CCC(=O)CC1,583.6,10,"[1, 6, 7, 8]",4,True,CHON,ester
9081,"adamantane-2,6-dione",C1C2CC3CC(C2=O)CC1C3=O,583.86,10,"[1, 6, 8]",3,True,CHO,ketone
9082,"tricyclo[6.2.0.03,6]decane-2,7-dione",C1CC2C1C(=O)C3CCC3C2=O,583.86,10,"[1, 6, 8]",3,True,CHO,ketone
9083,"tricyclo[4.2.2.02,5]decane-3,4-dione",C1CC2CCC1C3C2C(=O)C3=O,583.86,10,"[1, 6, 8]",3,True,CHO,ketone
9084,1-tert-butylperoxy-3-propoxypropan-2-ol,CCCOCC(COOC(C)(C)C)O,584.17,10,"[1, 6, 8]",3,True,CHO,ester
9085,"[2,2-di(propan-2-yl)-1,3-dioxolan-4-yl]methanol",CC(C)C1(OCC(O1)CO)C(C)C,584.45,10,"[1, 6, 8]",3,True,CHO,ester
9086,ethyl 3-oxo-8-azabicyclo[3.2.1]octane-8-carboxylate,CCOC(=O)N1C2CCC1CC(=O)C2,584.63,10,"[1, 6, 7, 8]",4,True,CHON,ester
9087,ethyl 5-oxo-2-azabicyclo[2.2.2]octane-2-carboxylate,CCOC(=O)N1CC2CCC1CC2=O,584.63,10,"[1, 6, 7, 8]",4,True,CHON,ester
9088,"(2-hexyl-1,3-dioxolan-4-yl)methanol",CCCCCCC1OCC(O1)CO,585.09,10,"[1, 6, 8]",3,True,CHO,ester
9089,3-(N-methylanilino)propanenitrile,CN(CCC#N)C1=CC=CC=C1,586.15,10,"[1, 6, 7]",3,True,CHN,aromatic
9090,"3a,6a-dimethyl-1,3,4,6-tetrahydropentalene-2,5-dione",CC12CC(=O)CC1(CC(=O)C2)C,586.54,10,"[1, 6, 8]",3,True,CHO,ketone
9091,"(5E)-5-piperidin-2-ylidene-3,4-dihydro-2H-pyridine",C1CCN/C(=C/2\CCCN=C2)/C1,587.37,10,"[1, 6, 7]",3,True,CHN,alkene
9092,"7-propan-2-ylidenebicyclo[2.2.1]hept-5-ene-2,3-dione",CC(=C1C2C=CC1C(=O)C2=O)C,587.47,10,"[1, 6, 8]",3,True,CHO,alkene
9093,3-methyl-1-phenylpyrazol-4-amine,CC1=NN(C=C1N)C2=CC=CC=C2,587.65,10,"[1, 6, 7]",3,True,CHN,aromatic
9094,5-methylhexan-2-yl 2-cyanoacetate,CC(C)CCC(C)OC(=O)CC#N,587.82,10,"[1, 6, 7, 8]",4,True,CHON,ester
9095,3-[3-(3-methoxypropoxy)propoxy]propan-1-ol,COCCCOCCCOCCCO,587.84,10,"[1, 6, 8]",3,True,CHO,ester
9096,4-propan-2-ylcyclohexane-1-carboxylic acid,CC(C)C1CCC(CC1)C(=O)O,588.35,10,"[1, 6, 8]",3,True,CHO,alcohol
9097,[4-(aminomethyl)-4-ethylcyclohexyl]methanamine,CCC1(CCC(CC1)CN)CN,588.58,10,"[1, 6, 7]",3,True,CHN,amine
9098,"2-hexyl-1,3-dioxan-5-ol",CCCCCCC1OCC(CO1)O,589.36,10,"[1, 6, 8]",3,True,CHO,ester
9099,"tricyclo[3.3.1.03,7]nonane-3-carboxylic acid",C1C2CC3CC1CC3(C2)C(=O)O,589.7,10,"[1, 6, 8]",3,True,CHO,alcohol
9100,"2,2,6,6-tetramethylpiperidine-4-carbonitrile",CC1(CC(CC(N1)(C)C)C#N)C,589.72,10,"[1, 6, 7]",3,True,CHN,amine
9101,"ethyl 5,5-dimethyl-2,4-dioxohexanoate",CCOC(=O)C(=O)CC(=O)C(C)(C)C,591.13,10,"[1, 6, 8]",3,True,CHO,ester
9102,2-(1-oxa-4-azaspiro[4.5]decan-4-yl)ethanol,C1CCC2(CC1)N(CCO2)CCO,591.17,10,"[1, 6, 7, 8]",4,True,CHON,ester
9103,methyl (1E)-3-oxocyclooctene-1-carboxylate,COC(=O)/C/1=C/C(=O)CCCCC1,591.34,10,"[1, 6, 8]",3,True,CHO,ester
9104,2-(butylcarbamoyloxy)ethyl prop-2-enoate,CCCCNC(=O)OCCOC(=O)C=C,591.69,10,"[1, 6, 7, 8]",4,True,CHON,ester
9105,2-cyclohexylbutanoic acid,CCC(C1CCCCC1)C(=O)O,593.02,10,"[1, 6, 8]",3,True,CHO,alcohol
9106,4-methylquinolin-2-amine,CC1=CC(=NC2=CC=CC=C12)N,593.15,10,"[1, 6, 7]",3,True,CHN,aromatic
9107,4-cyclohexylbutanoic acid,C1CCC(CC1)CCCC(=O)O,593.46,10,"[1, 6, 8]",3,True,CHO,alcohol
9108,"dispiro[3.1.36.14]decane-5,10-dione",C1CC2(C1)C(=O)C3(C2=O)CCC3,593.68,10,"[1, 6, 8]",3,True,CHO,ketone
9109,bis(2-methoxyethyl) (Z)-but-2-enedioate,COCCOC(=O)/C=C\C(=O)OCCOC,593.84,10,"[1, 6, 8]",3,True,CHO,ester
9110,ethyl 4-acetyl-5-oxohexanoate,CCOC(=O)CCC(C(=O)C)C(=O)C,593.92,10,"[1, 6, 8]",3,True,CHO,ester
9111,ethyl 2-acetyl-5-oxohexanoate,CCOC(=O)C(CCC(=O)C)C(=O)C,593.92,10,"[1, 6, 8]",3,True,CHO,ester
9112,4-prop-1-en-2-ylcyclohexene-1-carboxylic acid,CC(=C)C1CCC(=CC1)C(=O)O,594.16,10,"[1, 6, 8]",3,True,CHO,alkene
9113,2-(2-methylprop-2-enoyloxy)ethyl 3-oxobutanoate,CC(=C)C(=O)OCCOC(=O)CC(=O)C,595.27,10,"[1, 6, 8]",3,True,CHO,ester
9114,4-methylbicyclo[2.2.2]octane-1-carboxylic acid,CC12CCC(CC1)(CC2)C(=O)O,596.41,10,"[1, 6, 8]",3,True,CHO,alcohol
9115,1-heptoxy-3-hydroxypropan-2-one,CCCCCCCOCC(=O)CO,596.87,10,"[1, 6, 8]",3,True,CHO,ester
9116,"2-hydroxy-2,6,6-trimethylbicyclo[3.1.1]heptan-3-one",CC1(C2CC1C(C(=O)C2)(C)O)C,597.29,10,"[1, 6, 8]",3,True,CHO,alcohol
9117,"3-hydroxy-4,7,7-trimethylbicyclo[2.2.1]heptan-2-one",CC1(C2CCC1(C(C2=O)O)C)C,597.29,10,"[1, 6, 8]",3,True,CHO,alcohol
9118,(3-butoxy-2-hydroxypropyl) prop-2-enoate,CCCCOCC(COC(=O)C=C)O,597.46,10,"[1, 6, 8]",3,True,CHO,ester
9119,3-cyclohexylbut-2-enoic acid,CC(=CC(=O)O)C1CCCCC1,597.5,10,"[1, 6, 8]",3,True,CHO,alkene
9120,(2-butoxy-2-hydroxybutyl) acetate,CCCCOC(CC)(COC(=O)C)O,597.99,10,"[1, 6, 8]",3,True,CHO,ester
9121,"ethyl 6-methyl-2,4-dioxohept-5-enoate",CCOC(=O)C(=O)CC(=O)C=C(C)C,598.4,10,"[1, 6, 8]",3,True,CHO,ester
9122,"5,5-dimethylcyclohepta-1,3,6-triene-1-carboxylic acid",CC1(C=CC=C(C=C1)C(=O)O)C,600.43,10,"[1, 6, 8]",3,True,CHO,alkene
9123,butyl 2-butoxy-2-hydroxyacetate,CCCCOC(C(=O)OCCCC)O,600.78,10,"[1, 6, 8]",3,True,CHO,ester
9124,"10-hydroxytricyclo[4.2.1.12,5]deca-3,7-dien-9-one",C1=CC2C3C=CC(C1C2O)C3=O,601.87,10,"[1, 6, 8]",3,True,CHO,alkene
9125,"2,6-dimethylocta-1,7-diene-3,6-diol",CC(=C)C(CCC(C)(C=C)O)O,602.33,10,"[1, 6, 8]",3,True,CHO,alkene
9126,"2,6-dimethyloct-7-ene-2,6-diol",CC(C)(CCCC(C)(C=C)O)O,602.98,10,"[1, 6, 8]",3,True,CHO,alkene
9127,2-(1-hydroxypentyl)cyclopentan-1-one,CCCCC(C1CCCC1=O)O,603.24,10,"[1, 6, 8]",3,True,CHO,alcohol
9128,"cyclodecane-1,6-dione",C1CCC(=O)CCCCC(=O)C1,605.34,10,"[1, 6, 8]",3,True,CHO,ketone
9129,ethyl 4-oxo-4-(5-oxooxolan-3-yl)butanoate,CCOC(=O)CCC(=O)C1CC(=O)OC1,605.45,10,"[1, 6, 8]",3,True,CHO,ester
9130,"2,7-dimethyloctane-2,7-diol",CC(C)(CCCCC(C)(C)O)O,606.3,10,"[1, 6, 8]",3,True,CHO,alcohol
9131,"2,3,5,6-tetramethylcyclohexa-2,5-diene-1,4-dione",CC1=C(C(=O)C(=C(C1=O)C)C)C,606.5,10,"[1, 6, 8]",3,True,CHO,alkene
9132,3-methyl-3-(4-methylpent-3-enyl)oxirane-2-carboxylic acid,CC(=CCCC1(C(O1)C(=O)O)C)C,607.21,10,"[1, 6, 8]",3,True,CHO,carboxylic_acid
9133,"1-(3-hydroxy-2,2,5,5-tetramethyloxolan-3-yl)ethanone",CC(=O)C1(CC(OC1(C)C)(C)C)O,608.06,10,"[1, 6, 8]",3,True,CHO,ester
9134,"2,3-bis(oxiran-2-ylmethoxy)-1,4-dioxane",C1COC(C(O1)OCC2CO2)OCC3CO3,609.4,10,"[1, 6, 8]",3,True,CHO,ester
9135,2-[2-[2-(2-ethoxyethoxy)ethoxy]ethoxy]ethanol,CCOCCOCCOCCOCCO,610.26,10,"[1, 6, 8]",3,True,CHO,ester
9136,"3,3,6,6-tetramethyloxepane-4,5-dione",CC1(COCC(C(=O)C1=O)(C)C)C,610.62,10,"[1, 6, 8]",3,True,CHO,ester
9137,"1-cyclohexylpyrrole-2,5-dione",C1CCC(CC1)N2C(=O)C=CC2=O,610.87,10,"[1, 6, 7, 8]",4,True,CHON,amide
9138,"1-cyclohexylpyrrolidine-2,5-dione",C1CCC(CC1)N2C(=O)CCC2=O,611.71,10,"[1, 6, 7, 8]",4,True,CHON,amide
9139,"5,6,7,8-tetrahydronaphthalene-1,4-dione",C1CCC2=C(C1)C(=O)C=CC2=O,612.22,10,"[1, 6, 8]",3,True,CHO,alkene
9140,"decane-1,3-diol",CCCCCCCC(CCO)O,612.32,10,"[1, 6, 8]",3,True,CHO,alcohol
9141,"2-hexylbutane-1,4-diol",CCCCCCC(CCO)CO,612.32,10,"[1, 6, 8]",3,True,CHO,alcohol
9142,"1,2,8,9-tetrazatricyclo[8.4.0.03,8]tetradeca-2,4,6,9,11,13-hexaene",C1=CC2=NN3C=CC=CC3=NN2C=C1,612.64,10,"[1, 6, 7]",3,True,CHN,alkene
9143,1-[4-(2-aminopropyl)piperazin-1-yl]propan-2-amine,CC(CN1CCN(CC1)CC(C)N)N,613.14,10,"[1, 6, 7]",3,True,CHN,amine
9144,"1,3,3-trimethyl-5-oxocyclohexane-1-carbonitrile",CC1(CC(=O)CC(C1)(C)C#N)C,613.66,10,"[1, 6, 7, 8]",4,True,CHON,ketone
9145,"3-amino-1,2,3,4,4a,5,6,7,8,8a-decahydronaphthalen-2-ol",C1CCC2CC(C(CC2C1)N)O,614.33,10,"[1, 6, 7, 8]",4,True,CHON,alcohol
9146,"2-methoxy-3,5,5-trimethylcyclohex-2-ene-1,4-dione",CC1=C(C(=O)CC(C1=O)(C)C)OC,615.37,10,"[1, 6, 8]",3,True,CHO,ester
9147,"3,5-diethyl-4-iminocyclohexa-2,5-dien-1-one",CCC1=CC(=O)C=C(C1=N)CC,615.66,10,"[1, 6, 7, 8]",4,True,CHON,alkene
9148,2-[(Z)-but-2-enyl]-4-hydroxy-3-methylcyclopent-2-en-1-one,C/C=C\CC1=C(C(CC1=O)O)C,616.96,10,"[1, 6, 8]",3,True,CHO,alkene
9149,ethyl 2-(oxepin-2-ylamino)oxyacetate,CCOC(=O)CONC1=CC=CC=CO1,617.11,10,"[1, 6, 7, 8]",4,True,CHON,ester
9150,(NE)-N-[(4-prop-1-en-2-ylcyclohexen-1-yl)methylidene]hydroxylamine,CC(=C)C1CCC(=CC1)/C=N/O,617.51,10,"[1, 6, 7, 8]",4,True,CHON,alkene
9151,4-methoxybicyclo[2.2.2]octane-1-carboxylic acid,COC12CCC(CC1)(CC2)C(=O)O,618.83,10,"[1, 6, 8]",3,True,CHO,carboxylic_acid
9152,4-cyclohexyl-3-hydroxy-2H-furan-5-one,C1CCC(CC1)C2=C(COC2=O)O,618.88,10,"[1, 6, 8]",3,True,CHO,ester
9153,"7-hydroxy-3,7-dimethyloctanenitrile",CC(CCCC(C)(C)O)CC#N,618.99,10,"[1, 6, 7, 8]",4,True,CHON,alcohol
9154,"1-methyl-4-prop-1-en-2-ylcyclohexane-1,2-diol",CC(=C)C1CCC(C(C1)O)(C)O,619.77,10,"[1, 6, 8]",3,True,CHO,alkene
9155,1-[2-acetyloxypropyl(nitroso)amino]propan-2-yl acetate,CC(CN(CC(C)OC(=O)C)N=O)OC(=O)C,619.8,10,"[1, 6, 7, 8]",4,True,CHON,ester
9156,(NE)-N-(2-methyl-5-prop-1-en-2-ylcyclohex-2-en-1-ylidene)hydroxylamine,CC\1=CCC(C/C1=N\O)C(=C)C,619.99,10,"[1, 6, 7, 8]",4,True,CHON,alkene
9157,"tricyclo[6.2.0.03,6]deca-1(8),3(6)-diene-2,7-dione",C1CC2=C1C(=O)C3=C(C2=O)CC3,620.78,10,"[1, 6, 8]",3,True,CHO,alkene
9158,"dec-5-yne-4,7-diol",CCCC(C#CC(CCC)O)O,620.88,10,"[1, 6, 8]",3,True,CHO,alkyne
9159,"1-methyl-4-propan-2-ylcyclohexane-1,3-diol",CC(C)C1CCC(CC1O)(C)O,622.77,10,"[1, 6, 8]",3,True,CHO,alcohol
9160,"1-methyl-4-propan-2-ylcyclohexane-1,2-diol",CC(C)C1CCC(C(C1)O)(C)O,622.77,10,"[1, 6, 8]",3,True,CHO,alcohol
9161,"2,7-dimethylocta-3,5-diyne-2,7-diol",CC(C)(C#CC#CC(C)(C)O)O,624.3,10,"[1, 6, 8]",3,True,CHO,alkyne
9162,4-(2-hydroxypropan-2-yl)-1-methylcyclohexan-1-ol,CC1(CCC(CC1)C(C)(C)O)O,624.65,10,"[1, 6, 8]",3,True,CHO,alcohol
9163,"2,2-dimethyl-5-pyrrolidin-2-ylidene-1,3-dioxane-4,6-dione",CC1(OC(=O)C(=C2CCCN2)C(=O)O1)C,625.17,10,"[1, 6, 7, 8]",4,True,CHON,ester
9164,2-[hexyl(2-hydroxyethyl)amino]ethanol,CCCCCCN(CCO)CCO,625.2,10,"[1, 6, 7, 8]",4,True,CHON,alcohol
9165,"(NE)-N-[(2,6,6-trimethylcyclohexa-1,3-dien-1-yl)methylidene]hydroxylamine",CC1=C(C(CC=C1)(C)C)/C=N/O,625.33,10,"[1, 6, 7, 8]",4,True,CHON,alkene
9166,"2-N-[2-(2-methylpiperazin-1-yl)ethyl]propane-1,2-diamine",CC1CNCCN1CCNC(C)CN,626.93,10,"[1, 6, 7]",3,True,CHN,amine
9167,"1-N-[2-(2-methylpiperazin-1-yl)ethyl]propane-1,2-diamine",CC1CNCCN1CCNCC(C)N,626.93,10,"[1, 6, 7]",3,True,CHN,amine
9168,"1-N-[2-(3-methylpiperazin-1-yl)ethyl]propane-1,2-diamine",CC1CN(CCN1)CCNCC(C)N,626.93,10,"[1, 6, 7]",3,True,CHN,amine
9169,"2-N-[2-(3-methylpiperazin-1-yl)ethyl]propane-1,2-diamine",CC1CN(CCN1)CCNC(C)CN,626.93,10,"[1, 6, 7]",3,True,CHN,amine
9170,dimethyl (E)-2-[[acetyl(methyl)amino]-methylamino]but-2-enedioate,CC(=O)N(C)N(C)/C(=C/C(=O)OC)/C(=O)OC,627.63,10,"[1, 6, 7, 8]",4,True,CHON,ester
9171,"3,3-diethyl-5-methylpiperidine-2,4-dione",CCC1(C(=O)C(CNC1=O)C)CC,627.71,10,"[1, 6, 7, 8]",4,True,CHON,amide
9172,5-(2-hydroxypropan-2-yl)-2-methylcyclohex-2-en-1-ol,CC1=CCC(CC1O)C(C)(C)O,628.55,10,"[1, 6, 8]",3,True,CHO,alkene
9173,"2-cyclohexyl-2-methylpropane-1,3-diol",CC(CO)(CO)C1CCCCC1,629.08,10,"[1, 6, 8]",3,True,CHO,alcohol
9174,"2-(3-acetyl-2,2-dimethylcyclobutyl)acetic acid",CC(=O)C1CC(C1(C)C)CC(=O)O,629.69,10,"[1, 6, 8]",3,True,CHO,carboxylic_acid
9175,"1-(2-hydroxyethoxy)-2,2,4-trimethylpentan-3-ol",CC(C)C(C(C)(C)COCCO)O,631.07,10,"[1, 6, 8]",3,True,CHO,ester
9176,"1-cyclohexylbutane-1,2-diol",CCC(C(C1CCCCC1)O)O,631.43,10,"[1, 6, 8]",3,True,CHO,alcohol
9177,8-ethoxy-8-oxooctanoic acid,CCOC(=O)CCCCCCC(=O)O,632.13,10,"[1, 6, 8]",3,True,CHO,carboxylic_acid
9178,2-[1-(2-hydroxyethyl)cyclohexyl]ethanol,C1CCC(CC1)(CCO)CCO,632.55,10,"[1, 6, 8]",3,True,CHO,alcohol
9179,"2-acetyl-5,5-dimethylcyclohexane-1,3-dione",CC(=O)C1C(=O)CC(CC1=O)(C)C,633.03,10,"[1, 6, 8]",3,True,CHO,ketone
9180,"2,2,6,6-tetramethylpiperidine-4-carboxylic acid",CC1(CC(CC(N1)(C)C)C(=O)O)C,633.15,10,"[1, 6, 7, 8]",4,True,CHON,carboxylic_acid
9181,N-(hydroxymethyl)-N-(2-methyl-4-oxopentan-2-yl)prop-2-enamide,CC(=O)CC(C)(C)N(CO)C(=O)C=C,634.21,10,"[1, 6, 7, 8]",4,True,CHON,amide
9182,"3-heptoxypropane-1,2-diol",CCCCCCCOCC(CO)O,634.74,10,"[1, 6, 8]",3,True,CHO,ester
9183,"2,5-bis(aziridin-1-yl)cyclohexa-2,5-diene-1,4-dione",C1CN1C2=CC(=O)C(=CC2=O)N3CC3,635.7,10,"[1, 6, 7, 8]",4,True,CHON,ketone
9184,1-(1H-indol-5-yl)ethanone,CC(=O)C1=CC2=C(C=C1)NC=C2,636.15,10,"[1, 6, 7, 8]",4,True,CHON,aromatic
9185,(E)-4-hexoxy-4-oxobut-2-enoic acid,CCCCCCOC(=O)/C=C/C(=O)O,636.29,10,"[1, 6, 8]",3,True,CHO,carboxylic_acid
9186,N-[2-(butanoylamino)ethyl]butanamide,CCCC(=O)NCCNC(=O)CCC,636.48,10,"[1, 6, 7, 8]",4,True,CHON,amide
9187,N-(6-acetamidohexyl)acetamide,CC(=O)NCCCCCCNC(=O)C,636.48,10,"[1, 6, 7, 8]",4,True,CHON,amide
9188,"3,3-diethyl-5-methyl-1H-pyridine-2,4-dione",CCC1(C(=O)C(=CNC1=O)C)CC,636.52,10,"[1, 6, 7, 8]",4,True,CHON,amide
9189,"(1S,4R)-4,7,7-trimethyl-3-oxo-2-oxabicyclo[2.2.1]heptane-1-carboxylic acid",C[C@@]12CC[C@@](C1(C)C)(OC2=O)C(=O)O,637.39,10,"[1, 6, 8]",3,True,CHO,carboxylic_acid
9190,tert-butyl N-[(2-methylpropan-2-yl)oxycarbonylamino]carbamate,CC(C)(C)OC(=O)NNC(=O)OC(C)(C)C,638.72,10,"[1, 6, 7, 8]",4,True,CHON,ester
9191,3-methoxycarbonylbicyclo[2.2.1]hept-5-ene-2-carboxylic acid,COC(=O)C1C2CC(C1C(=O)O)C=C2,639.7,10,"[1, 6, 8]",3,True,CHO,carboxylic_acid
9192,3-[1-(2-hydroxyethyl)piperidin-4-yl]propan-1-ol,C1CN(CCC1CCCO)CCO,640.48,10,"[1, 6, 7, 8]",4,True,CHON,alcohol
9193,3-[2-[2-(3-aminopropoxy)ethoxy]ethoxy]propan-1-amine,C(CN)COCCOCCOCCCN,640.72,10,"[1, 6, 7, 8]",4,True,CHON,ester
9194,1-O-butyl 4-O-(2-hydroxyethyl) (Z)-but-2-enedioate,CCCCOC(=O)/C=C\C(=O)OCCO,641.18,10,"[1, 6, 8]",3,True,CHO,ester
9195,methyl (E)-3-(tert-butylcarbamoylamino)but-2-enoate,C/C(=C\C(=O)OC)/NC(=O)NC(C)(C)C,641.64,10,"[1, 6, 7, 8]",4,True,CHON,ester
9196,"3,4-diacetylhexane-2,5-dione",CC(=O)C(C(C(=O)C)C(=O)C)C(=O)C,643.0,10,"[1, 6, 8]",3,True,CHO,ketone
9197,"cyclodecane-1,2-diol",C1CCCCC(C(CCC1)O)O,644.72,10,"[1, 6, 8]",3,True,CHO,alcohol
9198,diethyl 2-(2-cyanoethyl)propanedioate,CCOC(=O)C(CCC#N)C(=O)OCC,646.48,10,"[1, 6, 7, 8]",4,True,CHON,ester
9199,"4,4,6,6-tetramethylcyclohexane-1,2,3-trione",CC1(CC(C(=O)C(=O)C1=O)(C)C)C,647.22,10,"[1, 6, 8]",3,True,CHO,ketone
9200,"1,4,7,10-tetraoxa-13-azacyclopentadecane",C1COCCOCCOCCOCCN1,647.4,10,"[1, 6, 7, 8]",4,True,CHON,ester
9201,2-[2-acetyloxyethyl(2-hydroxyethyl)amino]ethyl acetate,CC(=O)OCCN(CCO)CCOC(=O)C,649.46,10,"[1, 6, 7, 8]",4,True,CHON,ester
9202,N-(4-acetamidocyclohexyl)acetamide,CC(=O)NC1CCC(CC1)NC(=O)C,651.36,10,"[1, 6, 7, 8]",4,True,CHON,amide
9203,1-[4-(2-hydroxypropyl)piperazin-1-yl]propan-2-ol,CC(CN1CCN(CC1)CC(C)O)O,652.44,10,"[1, 6, 7, 8]",4,True,CHON,alcohol
9204,7-methyl-1H-quinolin-2-one,CC1=CC2=C(C=C1)C=CC(=O)N2,653.15,10,"[1, 6, 7, 8]",4,True,CHON,aromatic
9205,"N'-[2-[2-[2-(2-aminoethylamino)ethylamino]ethylamino]ethyl]ethane-1,2-diamine",C(CNCCNCCNCCNCCN)N,653.15,10,"[1, 6, 7]",3,True,CHN,amine
9206,(E)-4-cyclohexyloxy-4-oxobut-2-enoic acid,C1CCC(CC1)OC(=O)/C=C/C(=O)O,655.84,10,"[1, 6, 8]",3,True,CHO,carboxylic_acid
9207,"1,3,6,9,11,14-hexaoxacyclohexadecane",C1COCOCCOCCOCOCCO1,657.02,10,"[1, 6, 8]",3,True,CHO,ester
9208,"bicyclo[2.2.2]octa-2,5-diene-2,3-dicarbonitrile",C1CC2C=CC1C(=C2C#N)C#N,662.86,10,"[1, 6, 7]",3,True,CHN,alkene
9209,ethyl 4-acetyl-5-hydroxy-2-methylfuran-3-carboxylate,CCOC(=O)C1=C(OC(=C1C(=O)C)O)C,664.07,10,"[1, 6, 8]",3,True,CHO,ester
9210,"2,2-bis(hydroxymethyl)butyl 2-methylprop-2-enoate",CCC(CO)(CO)COC(=O)C(=C)C,664.31,10,"[1, 6, 8]",3,True,CHO,ester
9211,"(3-hydroxy-2,2-dimethylpropyl) 3-hydroxy-2,2-dimethylpropanoate",CC(C)(CO)COC(=O)C(C)(C)CO,664.52,10,"[1, 6, 8]",3,True,CHO,ester
9212,6-hydroxydecanoic acid,CCCCC(CCCCC(=O)O)O,665.65,10,"[1, 6, 8]",3,True,CHO,alcohol
9213,10-hydroxydecanoic acid,C(CCCCC(=O)O)CCCCO,666.09,10,"[1, 6, 8]",3,True,CHO,alcohol
9214,N-acetyl-N-[2-(diacetylamino)ethyl]acetamide,CC(=O)N(CCN(C(=O)C)C(=O)C)C(=O)C,668.76,10,"[1, 6, 7, 8]",4,True,CHON,amide
9215,"1,4,10-trioxa-7,13-diazacyclopentadecane",C1COCCNCCOCCOCCN1,669.0,10,"[1, 6, 7, 8]",4,True,CHON,ester