,Name,SMILES,Tb,C Atom,Atom,Count Unique Atom,Pass Screen,Atom2,Func. Group
4423,"2,2-dimethyl-1,3-dioxolane-4-carbaldehyde",CC1(OCC(O1)C=O)C,450.29,6,"[1, 6, 8]",3,True,CHO,ester
4424,"methyl 3-hydroxy-2,2-dimethylpropanoate",CC(C)(CO)C(=O)OC,450.65,6,"[1, 6, 8]",3,True,CHO,ester
4425,4-methyl-4-nitrosopentan-2-one,CC(=O)CC(C)(C)N=O,450.92,6,"[1, 6, 7, 8]",4,True,CHON,ketone
4426,3-propan-2-yloxypropan-1-ol,CC(C)OCCCO,451.04,6,"[1, 6, 8]",3,True,CHO,ester
4427,2-hydroperoxyhexane,CCCCC(C)OO,451.04,6,"[1, 6, 8]",3,True,CHO,ester
4428,3-hydroperoxyhexane,CCCC(CC)OO,451.04,6,"[1, 6, 8]",3,True,CHO,ester
4429,"2,5-dimethylfuran-3-one",CC1C(=O)C=C(O1)C,451.07,6,"[1, 6, 8]",3,True,CHO,ester
4430,"4,4-dimethoxybutan-2-one",CC(=O)CC(OC)OC,451.15,6,"[1, 6, 8]",3,True,CHO,ester
4431,"1-cyclopropylpropane-1,2-dione",CC(=O)C(=O)C1CC1,451.36,6,"[1, 6, 8]",3,True,CHO,ketone
4432,1-hydroperoxyhexane,CCCCCCOO,451.48,6,"[1, 6, 8]",3,True,CHO,ester
4433,ethyl 2-acetyloxyacetate,CCOC(=O)COC(=O)C,452.15,6,"[1, 6, 8]",3,True,CHO,ester
4434,"(2Z,5Z,8Z)-1,4,7-trioxonine",C\1=C\O/C=C\O/C=C\O1,452.24,6,"[1, 6, 8]",3,True,CHO,ester
4435,1-ethylpyrrolidin-3-ol,CCN1CCC(C1)O,452.51,6,"[1, 6, 7, 8]",4,True,CHON,alcohol
4436,2-ethylpiperazine,CCC1CNCCN1,452.65,6,"[1, 6, 7]",3,True,CHN,amine
4437,cyclopent-2-ene-1-carbonitrile,C1CC(C=C1)C#N,453.4,6,"[1, 6, 7]",3,True,CHN,alkene
4438,"4,4-dimethoxybutan-1-amine",COC(CCCN)OC,453.81,6,"[1, 6, 7, 8]",4,True,CHON,ester
4439,3-(2-methoxyethoxy)propan-1-amine,COCCOCCCN,454.25,6,"[1, 6, 7, 8]",4,True,CHON,ester
4440,2-methylbut-3-yn-2-yl carbamate,CC(C)(C#C)OC(=O)N,454.52,6,"[1, 6, 7, 8]",4,True,CHON,ester
4441,"5,5-dimethyl-1,3-oxazinan-2-one",CC1(CNC(=O)OC1)C,454.9,6,"[1, 6, 7, 8]",4,True,CHON,ester
4442,2-but-2-enoxyethanol,CC=CCOCCO,455.64,6,"[1, 6, 8]",3,True,CHO,ester
4443,oxan-2-ylmethanamine,C1CCOC(C1)CN,455.91,6,"[1, 6, 7, 8]",4,True,CHON,ester
4444,"2,2-dimethyl-1,3-dioxane-4,6-dione",CC1(OC(=O)CC(=O)O1)C,456.03,6,"[1, 6, 8]",3,True,CHO,ester
4445,1-methylpiperidin-3-ol,CN1CCCC(C1)O,456.78,6,"[1, 6, 7, 8]",4,True,CHON,alcohol
4446,"N,N-bis(2-methoxyethyl)nitrous amide",COCCN(CCOC)N=O,457.56,6,"[1, 6, 7, 8]",4,True,CHON,ester
4447,"6-methyl-1,4-diazepane",CC1CNCCNC1,457.8,6,"[1, 6, 7]",3,True,CHN,amine
4448,1-methoxypyridin-4-one,CON1C=CC(=O)C=C1,457.83,6,"[1, 6, 7, 8]",4,True,CHON,aromatic
4449,1-methoxypyridin-2-one,CON1C=CC=CC1=O,457.83,6,"[1, 6, 7, 8]",4,True,CHON,aromatic
4450,3-prop-2-enoxypropanenitrile,C=CCOCCC#N,458.06,6,"[1, 6, 7, 8]",4,True,CHON,ester
4451,2-(3-ethyloxiran-2-yl)ethanol,CCC1C(O1)CCO,458.08,6,"[1, 6, 8]",3,True,CHO,ester
4452,3-(aziridin-1-yl)butanenitrile,CC(CC#N)N1CC1,458.1,6,"[1, 6, 7]",3,True,CHN,amine
4453,3-hydroxy-3-methylpentanedioic acid,CC(CC(=O)O)(CC(=O)O)O,458.15,6,"[1, 6, 8]",3,True,CHO,alcohol
4454,4-methoxypentan-1-ol,CC(CCCO)OC,459.0,6,"[1, 6, 8]",3,True,CHO,ester
4455,"N'-butan-2-ylethane-1,2-diamine",CCC(C)NCCN,459.14,6,"[1, 6, 7]",3,True,CHN,amine
4456,N-methyl-2-[2-(methylamino)ethoxy]ethanamine,CNCCOCCNC,459.64,6,"[1, 6, 7, 8]",4,True,CHON,ester
4457,N-(ethoxymethyl)prop-2-enamide,CCOCNC(=O)C=C,460.02,6,"[1, 6, 7, 8]",4,True,CHON,ester
4458,2-hydroxyethyl 2-methylpropanoate,CC(C)C(=O)OCCO,460.15,6,"[1, 6, 8]",3,True,CHO,ester
4459,4-(dimethylamino)butanenitrile,CN(C)CCCC#N,460.15,6,"[1, 6, 7]",3,True,CHN,amine
4460,"6-amino-1,3-dimethyl-5-nitrosopyrimidine-2,4-dione",CN1C(=C(C(=O)N(C1=O)C)N=O)N,460.65,6,"[1, 6, 7, 8]",4,True,CHON,aromatic
4461,3-propan-2-yloxypropanenitrile,CC(C)OCCC#N,460.94,6,"[1, 6, 7, 8]",4,True,CHON,ester
4462,2-methylpent-4-enoic acid,CC(CC=C)C(=O)O,461.65,6,"[1, 6, 8]",3,True,CHO,alkene
4463,ethyl 3-isocyanatopropanoate,CCOC(=O)CCN=C=O,461.77,6,"[1, 6, 7, 8]",4,True,CHON,ester
4464,"cyclopenta-1,3-diene-1-carbonitrile",C1C=CC=C1C#N,462.21,6,"[1, 6, 7]",3,True,CHN,alkene
4465,3-methoxymorpholine-4-carbaldehyde,COC1COCCN1C=O,462.63,6,"[1, 6, 7, 8]",4,True,CHON,ester
4466,4-methylpentanamide,CC(C)CCC(=O)N,462.84,6,"[1, 6, 7, 8]",4,True,CHON,amide
4467,cyclopentene-1-carbonitrile,C1CC=C(C1)C#N,463.05,6,"[1, 6, 7]",3,True,CHN,alkene
4468,N-(2-oxopropyl)-N-prop-2-enylnitrous amide,CC(=O)CN(CC=C)N=O,463.27,6,"[1, 6, 7, 8]",4,True,CHON,alkene
4469,2-aminohexan-1-ol,CCCCC(CO)N,464.15,6,"[1, 6, 7, 8]",4,True,CHON,alcohol
4470,2-methylbutan-2-yl carbamate,CCC(C)(C)OC(=O)N,464.4,6,"[1, 6, 7, 8]",4,True,CHON,ester
4471,1-hydroxy-2-methylpentan-3-one,CCC(=O)C(C)CO,464.65,6,"[1, 6, 8]",3,True,CHO,alcohol
4472,"2-methylpentane-1,5-diamine",CC(CCCN)CN,466.15,6,"[1, 6, 7]",3,True,CHN,amine
4473,N-(2-oxopropyl)-N-propylnitrous amide,CCCN(CC(=O)C)N=O,466.59,6,"[1, 6, 7, 8]",4,True,CHON,ketone
4474,"1-methoxypentane-2,4-dione",CC(=O)CC(=O)COC,467.04,6,"[1, 6, 8]",3,True,CHO,ester
4475,2-pyrrolidin-1-ylacetonitrile,C1CCN(C1)CC#N,467.08,6,"[1, 6, 7]",3,True,CHN,amine
4476,pentan-2-yl carbamate,CCCC(C)OC(=O)N,467.19,6,"[1, 6, 7, 8]",4,True,CHON,ester
4477,ethyl 3-aminobutanoate,CCOC(=O)CC(C)N,467.19,6,"[1, 6, 7, 8]",4,True,CHON,ester
4478,(3-ethyloxetan-3-yl)methanol,CCC1(COC1)CO,467.26,6,"[1, 6, 8]",3,True,CHO,ester
4479,(Z)-hex-2-enamide,CCC/C=C\C(=O)N,467.44,6,"[1, 6, 7, 8]",4,True,CHON,alkene
4480,"2-(methoxymethyl)-2-methylpropane-1,3-diol",CC(CO)(CO)COC,467.65,6,"[1, 6, 8]",3,True,CHO,ester
4481,"1-(3,4-dihydro-2H-pyrrol-5-yl)ethanone",CC(=O)C1=NCCC1,468.54,6,"[1, 6, 7, 8]",4,True,CHON,ketone
4482,2-(2-ethenoxyethoxy)ethanol,C=COCCOCCO,469.15,6,"[1, 6, 8]",3,True,CHO,ester
4483,"N,N,N',N'-tetramethyloxamide",CN(C)C(=O)C(=O)N(C)C,469.5,6,"[1, 6, 7, 8]",4,True,CHON,amide
4484,"2-(dimethylamino)-N,N-dimethylacetamide",CN(C)CC(=O)N(C)C,470.15,6,"[1, 6, 7, 8]",4,True,CHON,amide
4485,2-azabicyclo[2.2.1]hept-5-en-3-one,C1C2C=CC1NC2=O,470.16,6,"[1, 6, 7, 8]",4,True,CHON,alkene
4486,3-hydroperoxycyclohexene,C1CC=CC(C1)OO,470.19,6,"[1, 6, 8]",3,True,CHO,alkene
4487,1-[ethyl(nitroso)amino]ethyl acetate,CCN(C(C)OC(=O)C)N=O,470.5,6,"[1, 6, 7, 8]",4,True,CHON,ester
4488,2-tert-butylperoxyethanol,CC(C)(C)OOCCO,470.67,6,"[1, 6, 8]",3,True,CHO,alcohol
4489,"1-butyl-1,2,4-triazole",CCCCN1C=NC=N1,470.72,6,"[1, 6, 7]",3,True,CHN,aromatic
4490,"4-butyl-1,2,4-triazole",CCCCN1C=NN=C1,470.72,6,"[1, 6, 7]",3,True,CHN,aromatic
4491,1-imidazol-1-ylpropan-1-one,CCC(=O)N1C=CN=C1,470.89,6,"[1, 6, 7, 8]",4,True,CHON,aromatic
4492,ethyl N-nitroso-N-propylcarbamate,CCCN(C(=O)OCC)N=O,470.94,6,"[1, 6, 7, 8]",4,True,CHON,ester
4493,[nitroso(propyl)amino]methyl acetate,CCCN(COC(=O)C)N=O,470.94,6,"[1, 6, 7, 8]",4,True,CHON,ester
4494,[methyl(nitroso)amino]methyl butanoate,CCCC(=O)OCN(C)N=O,470.94,6,"[1, 6, 7, 8]",4,True,CHON,ester
4495,6-azabicyclo[3.2.0]heptan-7-one,C1CC2C(C1)NC2=O,471.0,6,"[1, 6, 7, 8]",4,True,CHON,amide
4496,piperidine-1-carbonitrile,C1CCN(CC1)C#N,471.35,6,"[1, 6, 7]",3,True,CHN,amine
4497,methyl 4-methoxy-3-oxobutanoate,COCC(=O)CC(=O)OC,471.39,6,"[1, 6, 8]",3,True,CHO,ester
4498,1-piperazin-1-ylethanone,CC(=O)N1CCNCC1,471.69,6,"[1, 6, 7, 8]",4,True,CHON,amide
4499,"3,5-dimethyl-1-nitrosopiperazine",CC1CN(CC(N1)C)N=O,471.88,6,"[1, 6, 7, 8]",4,True,CHON,amine
4500,"N'-[2-(dimethylamino)ethyl]ethane-1,2-diamine",CN(C)CCNCCN,472.02,6,"[1, 6, 7]",3,True,CHN,amine
4501,2-amino-4-methylpentan-1-ol,CC(C)CC(CO)N,472.15,6,"[1, 6, 7, 8]",4,True,CHON,alcohol
4502,hex-5-ynoic acid,C#CCCCC(=O)O,472.51,6,"[1, 6, 8]",3,True,CHO,alkyne
4503,N-(butoxymethyl)-1-nitrosomethanamine,CCCCOCNCN=O,472.87,6,"[1, 6, 7, 8]",4,True,CHON,ester
4504,dimethyl 2-methylidenepropanedioate,COC(=O)C(=C)C(=O)OC,473.15,6,"[1, 6, 8]",3,True,CHO,ester
4505,"(E)-N,N-dimethylbut-2-enamide",C/C=C/C(=O)N(C)C,473.15,6,"[1, 6, 7, 8]",4,True,CHON,amide
4506,"2-ethylbutane-1,2-diol",CCC(CC)(CO)O,473.15,6,"[1, 6, 8]",3,True,CHO,alcohol
4507,"(2,2-dimethyl-1,3-dioxolan-4-yl)methanamine",CC1(OCC(O1)CN)C,474.16,6,"[1, 6, 7, 8]",4,True,CHON,ester
4508,"piperazine-1,4-dicarbaldehyde",C1CN(CCN1C=O)C=O,474.76,6,"[1, 6, 7, 8]",4,True,CHON,amide
4509,N'-cyclopentylmethanediamine,C1CCC(C1)NCN,474.86,6,"[1, 6, 7]",3,True,CHN,amine
4510,"2,3,4a,6,7,8a-hexahydro-[1,4]dioxino[2,3-b][1,4]dioxine",C1COC2C(O1)OCCO2,475.24,6,"[1, 6, 8]",3,True,CHO,ester
4511,ethyl imidazole-1-carboxylate,CCOC(=O)N1C=CN=C1,475.24,6,"[1, 6, 7, 8]",4,True,CHON,ester
4512,"2,3-dimethylbutane-2,3-diamine",CC(C)(C(C)(C)N)N,475.48,6,"[1, 6, 7]",3,True,CHN,amine
4513,2-(diethylamino)acetamide,CCN(CC)CC(=O)N,475.72,6,"[1, 6, 7, 8]",4,True,CHON,amide
4514,acetyloxymethoxymethyl acetate,CC(=O)OCOCOC(=O)C,475.74,6,"[1, 6, 8]",3,True,CHO,ester
4515,methyl 2-(2-methoxy-2-oxoethoxy)acetate,COC(=O)COCC(=O)OC,475.74,6,"[1, 6, 8]",3,True,CHO,ester
4516,methyl piperazine-1-carboxylate,COC(=O)N1CCNCC1,476.04,6,"[1, 6, 7, 8]",4,True,CHON,ester
4517,3-hydroxy-2-methylpentanal,CCC(C(C)C=O)O,476.84,6,"[1, 6, 8]",3,True,CHO,alcohol
4518,"2,4-dimethoxypyrimidine",COC1=NC(=NC=C1)OC,477.65,6,"[1, 6, 7, 8]",4,True,CHON,ester
4519,(NE)-N-(pyridin-4-ylmethylidene)hydroxylamine,C1=CN=CC=C1/C=N/O,478.01,6,"[1, 6, 7, 8]",4,True,CHON,aromatic
4520,(NE)-N-(pyridin-2-ylmethylidene)hydroxylamine,C1=CC=NC(=C1)/C=N/O,478.01,6,"[1, 6, 7, 8]",4,True,CHON,aromatic
4521,1-prop-2-enylimidazolidin-2-one,C=CCN1CCNC1=O,478.05,6,"[1, 6, 7, 8]",4,True,CHON,amide
4522,"3,5,5-trimethyl-1,3-oxazolidine-2,4-dione",CC1(C(=O)N(C(=O)O1)C)C,478.07,6,"[1, 6, 7, 8]",4,True,CHON,ester
4523,"2-methylpentane-2,4-diamine",CC(CC(C)(C)N)N,478.27,6,"[1, 6, 7]",3,True,CHN,amine
4524,"2,2-dimethyl-1,3-dioxan-5-one",CC1(OCC(=O)CO1)C,478.39,6,"[1, 6, 8]",3,True,CHO,ester
4525,propan-2-yl 2-cyanoacetate,CC(C)OC(=O)CC#N,478.65,6,"[1, 6, 7, 8]",4,True,CHON,ester
4526,"2,3,4,7-tetrahydrooxepin-2-ol",C1CC(OCC=C1)O,478.99,6,"[1, 6, 8]",3,True,CHO,ester
4527,"1,1-diethyl-3-methyl-3-nitrosourea",CCN(CC)C(=O)N(C)N=O,479.03,6,"[1, 6, 7, 8]",4,True,CHON,amide
4528,(E)-hex-4-enoic acid,C/C=C/CCC(=O)O,479.15,6,"[1, 6, 8]",3,True,CHO,alkene
4529,"4,4-dimethyloxolan-2-one",CC1(CC(=O)OC1)C,480.65,6,"[1, 6, 8]",3,True,CHO,ester
4530,5-hydroxyhexan-2-one,CC(CCC(=O)C)O,482.49,6,"[1, 6, 8]",3,True,CHO,alcohol
4531,"3,3-dimethyloxolane-2,4-dione",CC1(C(=O)COC1=O)C,482.65,6,"[1, 6, 8]",3,True,CHO,ester
4532,"4,5-dimethyloxolan-2-one",CC1CC(=O)OC1C,483.15,6,"[1, 6, 8]",3,True,CHO,ester
4533,"1,3,4-trimethylimidazol-2-one",CC1=CN(C(=O)N1C)C,483.15,6,"[1, 6, 7, 8]",4,True,CHON,aromatic
4534,cyclopentene-1-carboxylic acid,C1CC=C(C1)C(=O)O,483.15,6,"[1, 6, 8]",3,True,CHO,alkene
4535,"1,1-dicyanoethyl acetate",CC(=O)OC(C)(C#N)C#N,483.15,6,"[1, 6, 7, 8]",4,True,CHON,ester
4536,"4,4-dimethoxybutanenitrile",COC(CCC#N)OC,483.36,6,"[1, 6, 7, 8]",4,True,CHON,ester
4537,methyl 3-hydroxy-2-methylidenebutanoate,CC(C(=C)C(=O)OC)O,483.4,6,"[1, 6, 8]",3,True,CHO,ester
4538,3-(2-methoxyethoxy)propanenitrile,COCCOCCC#N,483.8,6,"[1, 6, 7, 8]",4,True,CHON,ester
4539,ethyl 2-(hydroxymethyl)prop-2-enoate,CCOC(=O)C(=C)CO,483.84,6,"[1, 6, 8]",3,True,CHO,ester
4540,methyl 3-hydroxy-3-methylbutanoate,CC(C)(CC(=O)OC)O,484.05,6,"[1, 6, 8]",3,True,CHO,ester
4541,oxan-4-ylmethanol,C1COCCC1CO,485.15,6,"[1, 6, 8]",3,True,CHO,ester
4542,"cyclohexane-1,4-dione",C1CC(=O)CCC1=O,485.65,6,"[1, 6, 8]",3,True,CHO,ketone
4543,ethyl (Z)-3-aminobut-2-enoate,CCOC(=O)/C=C(/C)\N,485.65,6,"[1, 6, 7, 8]",4,True,CHON,ester
4544,"bicyclo[3.1.0]hexane-2,4-dione",C1C2C1C(=O)CC2=O,486.0,6,"[1, 6, 8]",3,True,CHO,ketone
4545,"(2E,4E)-6-hydroxyhexa-2,4-dienal",C(/C=C/C=C/C=O)O,486.04,6,"[1, 6, 8]",3,True,CHO,alkene
4546,"2-methylcyclopentane-1,3-dione",CC1C(=O)CCC1=O,486.15,6,"[1, 6, 8]",3,True,CHO,ketone
4547,"1,4-dimethyl-5-propan-2-ylidenetetrazole",CC(=C1N(N=NN1C)C)C,486.25,6,"[1, 6, 7]",3,True,CHN,alkene
4548,methyl 2-hydroxy-3-methylbutanoate,CC(C)C(C(=O)OC)O,486.4,6,"[1, 6, 8]",3,True,CHO,ester
4549,(E)-3-methylpent-2-enoic acid,CC/C(=C/C(=O)O)/C,486.43,6,"[1, 6, 8]",3,True,CHO,alkene
4550,ethyl 2-hydroxybutanoate,CCC(C(=O)OCC)O,486.84,6,"[1, 6, 8]",3,True,CHO,ester
4551,propan-2-yl 3-hydroxypropanoate,CC(C)OC(=O)CCO,486.84,6,"[1, 6, 8]",3,True,CHO,ester
4552,2-methylidenepentanoic acid,CCCC(=C)C(=O)O,487.15,6,"[1, 6, 8]",3,True,CHO,alkene
4553,butyl 2-hydroxyacetate,CCCCOC(=O)CO,487.28,6,"[1, 6, 8]",3,True,CHO,ester
4554,"hexane-1,2,5,6-tetrol",C(CC(CO)O)C(CO)O,487.65,6,"[1, 6, 8]",3,True,CHO,alcohol
4555,"3-methylcyclopentane-1,2-dione",CC1CCC(=O)C1=O,487.8,6,"[1, 6, 8]",3,True,CHO,ketone
4556,dimethyl 2-methoxypropanedioate,COC(C(=O)OC)C(=O)OC,488.15,6,"[1, 6, 8]",3,True,CHO,ester
4557,N-prop-2-enoylprop-2-enamide,C=CC(=O)NC(=O)C=C,488.15,6,"[1, 6, 7, 8]",4,True,CHON,alkene
4558,3-(propan-2-ylamino)propanenitrile,CC(C)NCCC#N,488.69,6,"[1, 6, 7]",3,True,CHN,amine
4559,2-(butylamino)acetonitrile,CCCCNCC#N,489.13,6,"[1, 6, 7]",3,True,CHN,amine
4560,3-(propylamino)propanenitrile,CCCNCCC#N,489.13,6,"[1, 6, 7]",3,True,CHN,amine
4561,propyl 2-cyanoacetate,CCCOC(=O)CC#N,489.4,6,"[1, 6, 7, 8]",4,True,CHON,ester
4562,"3-hydroxy-4,4-dimethyloxolan-2-one",CC1(COC(=O)C1O)C,489.59,6,"[1, 6, 8]",3,True,CHO,ester
4563,2-propan-2-yloxyethyl carbamate,CC(C)OCCOC(=O)N,489.61,6,"[1, 6, 7, 8]",4,True,CHON,ester
4564,"1-methyl-1,4-diazepan-5-one",CN1CCC(=O)NCC1,489.91,6,"[1, 6, 7, 8]",4,True,CHON,amide
4565,"(2E,4E)-hexa-2,4-dienoic acid",C/C=C/C=C/C(=O)O,490.71,6,"[1, 6, 8]",3,True,CHO,alkene
4566,ethyl 3-hydroxy-2-methylprop-2-enoate,CCOC(=O)C(=CO)C,491.32,6,"[1, 6, 8]",3,True,CHO,ester
4567,hex-2-ynoic acid,CCCC#CC(=O)O,491.39,6,"[1, 6, 8]",3,True,CHO,alkyne
4568,2-(aminomethyl)cyclopentan-1-amine,C1CC(C(C1)N)CN,492.55,6,"[1, 6, 7]",3,True,CHN,amine
4569,3-methylidenecyclobutane-1-carboxylic acid,C=C1CC(C1)C(=O)O,492.56,6,"[1, 6, 8]",3,True,CHO,alkene
4570,5-oxohexanenitrile,CC(=O)CCCC#N,492.83,6,"[1, 6, 7, 8]",4,True,CHON,ketone
4571,"2,6-dimethyl-1,3-dioxan-4-ol",CC1CC(OC(O1)C)O,493.17,6,"[1, 6, 8]",3,True,CHO,ester
4572,"(2,4-dimethyl-1,3-dioxolan-2-yl)methanol",CC1COC(O1)(C)CO,493.81,6,"[1, 6, 8]",3,True,CHO,ester
4573,2-cyanoethyl prop-2-enoate,C=CC(=O)OCCC#N,493.86,6,"[1, 6, 7, 8]",4,True,CHON,ester
4574,prop-2-enyl 2-cyanoacetate,C=CCOC(=O)CC#N,493.86,6,"[1, 6, 7, 8]",4,True,CHON,ester
4575,ethyl 1-hydroxycyclopropane-1-carboxylate,CCOC(=O)C1(CC1)O,494.26,6,"[1, 6, 8]",3,True,CHO,ester
4576,4-ethenyl-2-hydroxy-2H-furan-5-one,C=CC1=CC(OC1=O)O,494.84,6,"[1, 6, 8]",3,True,CHO,ester
4577,"cyclohexa-3,5-diene-1,2-dione",C1=CC(=O)C(=O)C=C1,495.06,6,"[1, 6, 8]",3,True,CHO,alkene
4578,methyl 2-acetamidoprop-2-enoate,CC(=O)NC(=C)C(=O)OC,495.7,6,"[1, 6, 7, 8]",4,True,CHON,ester
4579,3-methyl-1-nitrosopiperidin-4-one,CC1CN(CCC1=O)N=O,495.82,6,"[1, 6, 7, 8]",4,True,CHON,ketone
4580,3-(cyclopropylamino)propanenitrile,C1CC1NCCC#N,495.87,6,"[1, 6, 7]",3,True,CHN,amine
4581,"cyclohex-2-ene-1,4-dione",C1CC(=O)C=CC1=O,495.9,6,"[1, 6, 8]",3,True,CHO,alkene
4582,"cyclohexane-1,3-dione",C1CC(=O)CC(=O)C1,496.74,6,"[1, 6, 8]",3,True,CHO,ketone
4583,ethyl 2-cyanopropanoate,CCOC(=O)C(C)C#N,496.74,6,"[1, 6, 7, 8]",4,True,CHON,ester
4584,"cyclohexane-1,4-diamine",C1CC(CCC1N)N,496.82,6,"[1, 6, 7]",3,True,CHN,amine
4585,"cyclohexane-1,3-diamine",C1CC(CC(C1)N)N,496.82,6,"[1, 6, 7]",3,True,CHN,amine
4586,cyclopent-3-ene-1-carboxylic acid,C1C=CCC1C(=O)O,496.83,6,"[1, 6, 8]",3,True,CHO,alkene
4587,piperidin-2-ylmethanol,C1CCNC(C1)CO,497.16,6,"[1, 6, 7, 8]",4,True,CHON,alcohol
4588,piperidin-3-ylmethanol,C1CC(CNC1)CO,497.16,6,"[1, 6, 7, 8]",4,True,CHON,alcohol
4589,"cyclohexane-1,2-diol",C1CCC(C(C1)O)O,498.15,6,"[1, 6, 8]",3,True,CHO,alcohol
4590,4-hydroxy-4-methyloxan-2-one,CC1(CCOC(=O)C1)O,498.53,6,"[1, 6, 8]",3,True,CHO,ester
4591,5-propyl-1H-pyrazole,CCCC1=CC=NN1,498.65,6,"[1, 6, 7]",3,True,CHN,aromatic
4592,methyl 2-acetamidopropanoate,CC(C(=O)OC)NC(=O)C,498.7,6,"[1, 6, 7, 8]",4,True,CHON,ester
4593,ethyl 2-acetamidoacetate,CCOC(=O)CNC(=O)C,499.14,6,"[1, 6, 7, 8]",4,True,CHON,ester
4594,2-acetamidoethyl acetate,CC(=O)NCCOC(=O)C,499.14,6,"[1, 6, 7, 8]",4,True,CHON,ester
4595,methyl 4-(methylamino)-4-oxobutanoate,CNC(=O)CCC(=O)OC,499.14,6,"[1, 6, 7, 8]",4,True,CHON,ester
4596,"3-propan-2-yloxypropane-1,2-diol",CC(C)OCC(CO)O,499.15,6,"[1, 6, 8]",3,True,CHO,ester
4597,"1-ethylpyrrole-2,5-dione",CCN1C(=O)C=CC1=O,499.8,6,"[1, 6, 7, 8]",4,True,CHON,amide
4598,N-(2-methylpropyl)acetamide,CC(C)CNC(=O)C,500.15,6,"[1, 6, 7, 8]",4,True,CHON,amide
4599,4-hydroperoxy-4-methylpentan-2-one,CC(=O)CC(C)(C)OO,502.12,6,"[1, 6, 8]",3,True,CHO,ester
4600,(4-amino-2-methoxypyrimidin-5-yl)methanol,COC1=NC=C(C(=N1)N)CO,502.15,6,"[1, 6, 7, 8]",4,True,CHON,ester
4601,2-oxocyclopentane-1-carbonitrile,C1CC(C(=O)C1)C#N,502.65,6,"[1, 6, 7, 8]",4,True,CHON,ketone
4602,"(5-methyl-1,3-dioxan-5-yl)methanol",CC1(COCOC1)CO,502.75,6,"[1, 6, 8]",3,True,CHO,ester
4603,"methyl 2,4-dioxopentanoate",CC(=O)CC(=O)C(=O)OC,502.84,6,"[1, 6, 8]",3,True,CHO,ester
4604,"3,3,3-trimethoxypropanenitrile",COC(CC#N)(OC)OC,502.99,6,"[1, 6, 7, 8]",4,True,CHON,ester
4605,"4-hydroxy-2,3-dimethyl-2H-furan-5-one",CC1C(=C(C(=O)O1)O)C,503.14,6,"[1, 6, 8]",3,True,CHO,ester
4606,4-methylpyridin-2-amine,CC1=CC(=NC=C1)N,503.2,6,"[1, 6, 7]",3,True,CHN,aromatic
4607,N-(2-hydroxypropyl)-N-propylnitrous amide,CCCN(CC(C)O)N=O,504.46,6,"[1, 6, 7, 8]",4,True,CHON,alcohol
4608,N-pyrrolidin-3-ylacetamide,CC(=O)NC1CCNC1,504.75,6,"[1, 6, 7, 8]",4,True,CHON,amide
4609,N-ethyl-N-(4-hydroxybutyl)nitrous amide,CCN(CCCCO)N=O,504.9,6,"[1, 6, 7, 8]",4,True,CHON,alcohol
4610,N-(5-oxo-2H-furan-2-yl)acetamide,CC(=O)NC1C=CC(=O)O1,505.04,6,"[1, 6, 7, 8]",4,True,CHON,ester
4611,"3,4,5-trimethyl-1H-pyrazole",CC1=C(NN=C1C)C,506.15,6,"[1, 6, 7]",3,True,CHN,aromatic
4612,"hexane-3,4-diol",CCC(C(CC)O)O,506.65,6,"[1, 6, 8]",3,True,CHO,alcohol
4613,piperidine-4-carbonitrile,C1CNCCC1C#N,507.06,6,"[1, 6, 7]",3,True,CHN,amine
4614,"2,2-diethoxyacetamide",CCOC(C(=O)N)OCC,507.68,6,"[1, 6, 7, 8]",4,True,CHON,ester
4615,2-amino-2-methylpentanenitrile,CCCC(C)(C#N)N,508.26,6,"[1, 6, 7]",3,True,CHN,amine
4616,1-imidazol-1-ylpropan-2-ol,CC(CN1C=CN=C1)O,508.76,6,"[1, 6, 7, 8]",4,True,CHON,aromatic
4617,2-[(2-amino-2-methylpropyl)amino]ethanol,CC(C)(CNCCO)N,509.15,6,"[1, 6, 7, 8]",4,True,CHON,alcohol
4618,"hexane-1,5-diol",CC(CCCCO)O,510.15,6,"[1, 6, 8]",3,True,CHO,alcohol
4619,"3,3-dimethylpyrrolidin-2-one",CC1(CCNC1=O)C,510.15,6,"[1, 6, 7, 8]",4,True,CHON,amide
4620,"N,N-diacetylacetamide",CC(=O)N(C(=O)C)C(=O)C,510.93,6,"[1, 6, 7, 8]",4,True,CHON,amide
4621,"1,3-dimethylpyrimidine-2,4-dione",CN1C=CC(=O)N(C1=O)C,512.24,6,"[1, 6, 7, 8]",4,True,CHON,aromatic
4622,4-aminocyclohexan-1-ol,C1CC(CCC1N)O,513.15,6,"[1, 6, 7, 8]",4,True,CHON,alcohol
4623,3-methyl-4-oxopentanoic acid,CC(CC(=O)O)C(=O)C,514.65,6,"[1, 6, 8]",3,True,CHO,carboxylic_acid
4624,"4-hydroxycyclohexa-2,5-dien-1-one",C1=CC(=O)C=CC1O,514.75,6,"[1, 6, 8]",3,True,CHO,alkene
4625,2-hydroxy-4-methylcyclopent-2-en-1-one,CC1CC(=O)C(=C1)O,516.3,6,"[1, 6, 8]",3,True,CHO,alkene
4626,"7-oxabicyclo[2.2.1]hept-5-ene-2,3-dione",C1=CC2C(=O)C(=O)C1O2,516.38,6,"[1, 6, 8]",3,True,CHO,ester
4627,2-hydroxycyclohexan-1-one,C1CCC(=O)C(C1)O,516.43,6,"[1, 6, 8]",3,True,CHO,alcohol
4628,2-aminocyclohexan-1-ol,C1CCC(C(C1)N)O,516.47,6,"[1, 6, 7, 8]",4,True,CHON,alcohol
4629,(1-aminocyclopentyl)methanol,C1CCC(C1)(CO)N,517.11,6,"[1, 6, 7, 8]",4,True,CHON,alcohol
4630,"3-methylpentane-2,3-diol",CCC(C)(C(C)O)O,517.57,6,"[1, 6, 8]",3,True,CHO,alcohol
4631,"2,2-dimethylbutane-1,4-diol",CC(C)(CCO)CO,518.01,6,"[1, 6, 8]",3,True,CHO,alcohol
4632,"3-methylpentane-1,3-diol",CCC(C)(CCO)O,518.01,6,"[1, 6, 8]",3,True,CHO,alcohol
4633,"1,3,5,7-tetrahydro-[1,3]oxazolo[3,4-c][1,3]oxazol-7a-ylmethanol",C1C2(COCN2CO1)CO,518.06,6,"[1, 6, 7, 8]",4,True,CHON,ester
4634,"5-ethyl-5-methyl-1,3-oxazolidine-2,4-dione",CCC1(C(=O)NC(=O)O1)C,518.45,6,"[1, 6, 7, 8]",4,True,CHON,ester
4635,"1,4,7-triazonane",C1CNCCNCCN1,519.56,6,"[1, 6, 7]",3,True,CHN,amine
4636,2-methoxyethyl 2-cyanoacetate,COCCOC(=O)CC#N,519.6,6,"[1, 6, 7, 8]",4,True,CHON,ester
4637,4-amino-4-methoxypentan-2-ol,CC(CC(C)(N)OC)O,520.34,6,"[1, 6, 7, 8]",4,True,CHON,ester
4638,"2-propan-2-ylpropane-1,3-diol",CC(C)C(CO)CO,520.36,6,"[1, 6, 8]",3,True,CHO,alcohol
4639,"2-ethylbutane-1,3-diol",CCC(CO)C(C)O,520.36,6,"[1, 6, 8]",3,True,CHO,alcohol