,Name,SMILES,Tb,C Atom,Atom,Count Unique Atom,Pass Screen,Atom2,Func. Group
5072,2-propan-2-yloxyfuran,CC(C)OC1=CC=CO1,408.65,7,"[1, 6, 8]",3,True,CHO,ester
5073,8-oxabicyclo[5.1.0]octane,C1CCC2C(O2)CC1,408.73,7,"[1, 6, 8]",3,True,CHO,ester
5074,N-ethyl-3-methylbutan-2-amine,CCNC(C)C(C)C,409.05,7,"[1, 6, 7]",3,True,CHN,amine
5075,N-ethylpentan-1-amine,CCCCCNCC,409.15,7,"[1, 6, 7]",3,True,CHN,amine
5076,2-propyloxolane,CCCC1CCCO1,409.15,7,"[1, 6, 8]",3,True,CHO,ester
5077,cyclopentyl acetate,CC(=O)OC1CCCC1,409.4,7,"[1, 6, 8]",3,True,CHO,ester
5078,"2-methoxycyclohexa-1,3-diene",COC1=CCCC=C1,409.7,7,"[1, 6, 8]",3,True,CHO,ester
5079,5-methylhex-1-en-3-one,CC(C)CC(=O)C=C,409.87,7,"[1, 6, 8]",3,True,CHO,alkene
5080,3-methylhex-1-yn-3-ol,CCCC(C)(C#C)O,410.15,7,"[1, 6, 8]",3,True,CHO,alkyne
5081,"1,1-dimethoxy-3-methylbut-2-ene",CC(=CC(OC)OC)C,410.15,7,"[1, 6, 8]",3,True,CHO,ester
5082,3-methylhex-5-en-2-one,CC(CC=C)C(=O)C,410.15,7,"[1, 6, 8]",3,True,CHO,alkene
5083,hept-1-en-3-one,CCCCC(=O)C=C,410.31,7,"[1, 6, 8]",3,True,CHO,alkene
5084,"4,4-dimethylpentan-2-ol",CC(CC(C)(C)C)O,410.4,7,"[1, 6, 8]",3,True,CHO,alcohol
5085,1-methoxycyclohexene,COC1=CCCCC1,410.54,7,"[1, 6, 8]",3,True,CHO,ester
5086,4-methylhex-5-en-2-one,CC(CC(=O)C)C=C,410.65,7,"[1, 6, 8]",3,True,CHO,alkene
5087,methyl 3-methylpentanoate,CCC(C)CC(=O)OC,410.8,7,"[1, 6, 8]",3,True,CHO,ester
5088,ethyl 2-methylidenebutanoate,CCC(=C)C(=O)OCC,411.15,7,"[1, 6, 8]",3,True,CHO,ester
5089,ethyl 2-methylidenebut-3-enoate,CCOC(=O)C(=C)C=C,411.22,7,"[1, 6, 8]",3,True,CHO,ester
5090,"2-tert-butyl-1,2-oxazolidine",CC(C)(C)N1CCCO1,411.6,7,"[1, 6, 7, 8]",4,True,CHON,ester
5091,"N'-tert-butyl-N,N-dimethylmethanimidamide",CC(C)(C)N=CN(C)C,411.65,7,"[1, 6, 7]",3,True,CHN,amine
5092,"1,5-diazabicyclo[3.3.1]nonane",C1CN2CCCN(C1)C2,411.73,7,"[1, 6, 7]",3,True,CHN,amine
5093,"3,3-diethyloxetane",CCC1(COC1)CC,412.15,7,"[1, 6, 8]",3,True,CHO,ester
5094,"2-ethyl-4-methyl-1,3-dioxane",CCC1OCCC(O1)C,412.15,7,"[1, 6, 8]",3,True,CHO,ester
5095,3-methylhexan-2-amine,CCCC(C)C(C)N,412.15,7,"[1, 6, 7]",3,True,CHN,amine
5096,(Z)-hept-4-enal,CC/C=C\CCC=O,412.58,7,"[1, 6, 8]",3,True,CHO,alkene
5097,2-propan-2-ylideneoxolane,CC(=C1CCCO1)C,413.18,7,"[1, 6, 8]",3,True,CHO,ester
5098,2-ethylpentanal,CCCC(CC)C=O,413.65,7,"[1, 6, 8]",3,True,CHO,aldehyde
5099,2-methylprop-2-enyl propanoate,CCC(=O)OCC(=C)C,414.15,7,"[1, 6, 8]",3,True,CHO,ester
5100,"4,4-dimethylpent-2-ynal",CC(C)(C)C#CC=O,414.19,7,"[1, 6, 8]",3,True,CHO,alkyne
5101,"2,3-dimethylpentanal",CCC(C)C(C)C=O,414.65,7,"[1, 6, 8]",3,True,CHO,aldehyde
5102,ethyl pent-4-enoate,CCOC(=O)CCC=C,414.66,7,"[1, 6, 8]",3,True,CHO,ester
5103,"1,2-dimethoxycyclopentane",COC1CCCC1OC,415.21,7,"[1, 6, 8]",3,True,CHO,ester
5104,4-prop-2-enylmorpholine,C=CCN1CCOCC1,415.78,7,"[1, 6, 7, 8]",4,True,CHON,ester
5105,1-methylcyclohexan-1-amine,CC1(CCCCC1)N,416.46703,7,"[1, 6, 7]",3,True,CHN,amine
5106,3-methylhexan-2-one,CCCC(C)C(=O)C,416.65,7,"[1, 6, 8]",3,True,CHO,ketone
5107,3-methylbut-3-enyl acetate,CC(=C)CCOC(=O)C,416.65,7,"[1, 6, 8]",3,True,CHO,ester
5108,N-(cyclopropylmethyl)propan-1-amine,CCCNCC1CC1,416.67,7,"[1, 6, 7]",3,True,CHN,amine
5109,methyl 2-methylpentanoate,CCCC(C)C(=O)OC,417.54,7,"[1, 6, 8]",3,True,CHO,ester
5110,methyl 4-methylpentanoate,CC(C)CCC(=O)OC,417.54,7,"[1, 6, 8]",3,True,CHO,ester
5111,"3,4-dimethylpent-3-en-2-one",CC(=C(C)C(=O)C)C,417.55,7,"[1, 6, 8]",3,True,CHO,alkene
5112,"3-(dimethylamino)-2,2-dimethylpropanal",CC(C)(CN(C)C)C=O,417.63,7,"[1, 6, 7, 8]",4,True,CHON,aldehyde
5113,(E)-hept-5-en-2-one,C/C=C/CCC(=O)C,417.79,7,"[1, 6, 8]",3,True,CHO,alkene
5114,(E)-hept-4-en-2-one,CC/C=C/CC(=O)C,417.79,7,"[1, 6, 8]",3,True,CHO,alkene
5115,(Z)-hept-3-en-2-one,CCC/C=C\C(=O)C,417.79,7,"[1, 6, 8]",3,True,CHO,alkene
5116,"2-aminocyclohepta-2,4,6-trien-1-one",C1=CC=C(C(=O)C=C1)N,417.9,7,"[1, 6, 7, 8]",4,True,CHON,aromatic
5117,"1,2-dimethylpiperidine",CC1CCCCN1C,418.15,7,"[1, 6, 7]",3,True,CHN,amine
5118,"1-methoxycyclohexa-1,3-diene",COC1=CC=CCC1,418.15,7,"[1, 6, 8]",3,True,CHO,ester
5119,"4-methyl-2-propyl-1,3-dioxolane",CCCC1OCC(O1)C,418.15,7,"[1, 6, 8]",3,True,CHO,ester
5120,1-(2-methoxyethoxy)butane,CCCCOCCOC,418.15,7,"[1, 6, 8]",3,True,CHO,ester
5121,1-[bis(2-hydroxyethyl)amino]propan-2-ol,CC(CN(CCO)CCO)O,418.15,7,"[1, 6, 7, 8]",4,True,CHON,alcohol
5122,hept-6-en-2-one,CC(=O)CCCC=C,418.15,7,"[1, 6, 8]",3,True,CHO,alkene
5123,"4,4-dimethylpiperidine",CC1(CCNCC1)C,418.65,7,"[1, 6, 7]",3,True,CHN,amine
5124,2-cyclopropylbut-3-yn-2-ol,CC(C#C)(C1CC1)O,418.65,7,"[1, 6, 8]",3,True,CHO,alkyne
5125,1-propylpyrrole,CCCN1C=CC=C1,418.65,7,"[1, 6, 7]",3,True,CHN,aromatic
5126,prop-2-enyl (E)-but-2-enoate,C/C=C/C(=O)OCC=C,418.82,7,"[1, 6, 8]",3,True,CHO,ester
5127,[(E)-but-2-enyl] prop-2-enoate,C/C=C/COC(=O)C=C,418.82,7,"[1, 6, 8]",3,True,CHO,ester
5128,"2,2-dimethyl-4,7-dihydro-1,3-dioxepine",CC1(OCC=CCO1)C,418.9,7,"[1, 6, 8]",3,True,CHO,ester
5129,propan-2-yl (E)-but-2-enoate,C/C=C/C(=O)OC(C)C,418.9,7,"[1, 6, 8]",3,True,CHO,ester
5130,"1,1-diethoxy-2-methoxyethane",CCOC(COC)OCC,419.15,7,"[1, 6, 8]",3,True,CHO,ester
5131,2-methylhex-3-yn-2-ol,CCC#CC(C)(C)O,419.15,7,"[1, 6, 8]",3,True,CHO,alkyne
5132,3-ethylpent-1-yn-3-amine,CCC(CC)(C#C)N,419.18,7,"[1, 6, 7]",3,True,CHN,alkyne
5133,oxocane,C1CCCOCCC1,419.47,7,"[1, 6, 8]",3,True,CHO,ester
5134,"2-ethenyl-4-methyl-1,3-dioxane",CC1CCOC(O1)C=C,419.65,7,"[1, 6, 8]",3,True,CHO,ester
5135,ethyl 2-methylcyclopropane-1-carboxylate,CCOC(=O)C1CC1C,420.05,7,"[1, 6, 8]",3,True,CHO,ester
5136,"1,1-dimethoxycyclopentane",COC1(CCCC1)OC,420.12,7,"[1, 6, 8]",3,True,CHO,ester
5137,dipropan-2-yl carbonate,CC(C)OC(=O)OC(C)C,420.15,7,"[1, 6, 8]",3,True,CHO,ester
5138,"2-methyl-1-N-propan-2-ylpropane-1,2-diamine",CC(C)NCC(C)(C)N,420.45,7,"[1, 6, 7]",3,True,CHN,amine
5139,ethyl (E)-pent-3-enoate,CCOC(=O)C/C=C/C,420.65,7,"[1, 6, 8]",3,True,CHO,ester
5140,"2,3,5,6,7,8-hexahydro-1H-pyrrolizine",C1CC2CCCN2C1,421.15,7,"[1, 6, 7]",3,True,CHN,amine
5141,"heptane-3,4-dione",CCCC(=O)C(=O)CC,421.15,7,"[1, 6, 8]",3,True,CHO,ketone
5142,"1-methoxycyclohexa-1,4-diene",COC1=CCC=CC1,421.65,7,"[1, 6, 8]",3,True,CHO,ester
5143,2-methyl-1-oxa-2-azaspiro[2.5]octane,CN1C2(O1)CCCCC2,421.81,7,"[1, 6, 7, 8]",4,True,CHON,ester
5144,methyl (E)-2-methylpent-2-enoate,CC/C=C(\C)/C(=O)OC,422.02,7,"[1, 6, 8]",3,True,CHO,ester
5145,methyl 3-methylpent-3-enoate,CC=C(C)CC(=O)OC,422.02,7,"[1, 6, 8]",3,True,CHO,ester
5146,[(E)-2-methylbut-2-enyl] acetate,C/C=C(\C)/COC(=O)C,422.02,7,"[1, 6, 8]",3,True,CHO,ester
5147,methyl (E)-3-methylpent-2-enoate,CC/C(=C/C(=O)OC)/C,422.02,7,"[1, 6, 8]",3,True,CHO,ester
5148,propyl (E)-but-2-enoate,CCCOC(=O)/C=C/C,422.14,7,"[1, 6, 8]",3,True,CHO,ester
5149,methyl (E)-hex-3-enoate,CC/C=C/CC(=O)OC,422.14,7,"[1, 6, 8]",3,True,CHO,ester
5150,methyl (Z)-hex-3-enoate,CC/C=C\CC(=O)OC,422.14,7,"[1, 6, 8]",3,True,CHO,ester
5151,ethyl (E)-pent-2-enoate,CC/C=C/C(=O)OCC,422.14,7,"[1, 6, 8]",3,True,CHO,ester
5152,2-(ethoxymethyl)furan,CCOCC1=CC=CO1,422.15,7,"[1, 6, 8]",3,True,CHO,ester
5153,4-methylcyclohexan-1-amine,CC1CCC(CC1)N,422.15,7,"[1, 6, 7]",3,True,CHN,amine
5154,2-methylcyclopentane-1-carbaldehyde,CC1CCCC1C=O,422.15,7,"[1, 6, 8]",3,True,CHO,aldehyde
5155,4-hydroxybenzonitrile,C1=CC(=CC=C1C#N)O,422.15,7,"[1, 6, 7, 8]",4,True,CHON,aromatic
5156,2-methylhex-4-yn-3-one,CC#CC(=O)C(C)C,422.19,7,"[1, 6, 8]",3,True,CHO,alkyne
5157,hept-3-yn-2-one,CCCC#CC(=O)C,422.63,7,"[1, 6, 8]",3,True,CHO,alkyne
5158,hept-2-yn-4-one,CCCC(=O)C#CC,422.63,7,"[1, 6, 8]",3,True,CHO,alkyne
5159,pent-4-enyl acetate,CC(=O)OCCCC=C,422.65,7,"[1, 6, 8]",3,True,CHO,ester
5160,"N,N,2,2-tetramethylpropanamide",CC(C)(C)C(=O)N(C)C,422.84,7,"[1, 6, 7, 8]",4,True,CHON,amide
5161,3-methylbut-2-enyl acetate,CC(=CCOC(=O)C)C,423.15,7,"[1, 6, 8]",3,True,CHO,ester
5162,2-methylcyclohexan-1-amine,CC1CCCCC1N,423.15,7,"[1, 6, 7]",3,True,CHN,amine
5163,"2,4-dimethylpiperidine",CC1CCNC(C1)C,423.19,7,"[1, 6, 7]",3,True,CHN,amine
5164,"2,4,6-trimethyl-1,3-dioxane",CC1CC(OC(O1)C)C,423.87,7,"[1, 6, 8]",3,True,CHO,ester
5165,ethyl 2-methylidenecyclopropane-1-carboxylate,CCOC(=O)C1CC1=C,423.88,7,"[1, 6, 8]",3,True,CHO,ester
5166,"1,5-dimethoxycyclopentene",COC1CCC=C1OC,424.02,7,"[1, 6, 8]",3,True,CHO,ester
5167,"4,6-dimethyloxan-2-one",CC1CC(OC(=O)C1)C,424.32,7,"[1, 6, 8]",3,True,CHO,ester
5168,3-ethylpiperidine,CCC1CCCNC1,424.65,7,"[1, 6, 7]",3,True,CHN,amine
5169,"3,3,5,5-tetramethyldioxolane",CC1(CC(OO1)(C)C)C,424.75,7,"[1, 6, 8]",3,True,CHO,ester
5170,"2,5-dimethoxy-5-methyl-2H-furan",CC1(C=CC(O1)OC)OC,425.15,7,"[1, 6, 8]",3,True,CHO,ester
5171,5-methylhex-4-en-2-one,CC(=CCC(=O)C)C,425.15,7,"[1, 6, 8]",3,True,CHO,alkene
5172,4-(dimethylamino)-3-methylbutan-2-one,CC(CN(C)C)C(=O)C,425.63,7,"[1, 6, 7, 8]",4,True,CHON,ketone
5173,"2,4-dimethylcyclopentan-1-one",CC1CC(C(=O)C1)C,425.65,7,"[1, 6, 8]",3,True,CHO,ketone
5174,3-methylcyclohexan-1-amine,CC1CCCC(C1)N,425.65,7,"[1, 6, 7]",3,True,CHN,amine
5175,"N,N-dimethylpentanamide",CCCCC(=O)N(C)C,426.07,7,"[1, 6, 7, 8]",4,True,CHON,amide
5176,4-methylhexan-1-amine,CCC(C)CCCN,426.15,7,"[1, 6, 7]",3,True,CHN,amine
5177,"3,4-dimethylpentan-2-ol",CC(C)C(C)C(C)O,426.15,7,"[1, 6, 8]",3,True,CHO,alcohol
5178,"1,5-dimethyltricyclo[2.1.0.02,5]pentan-3-one",CC12C3C1(C2C3=O)C,426.53,7,"[1, 6, 8]",3,True,CHO,ketone
5179,1-propan-2-ylpyrrole,CC(C)N1C=CC=C1,426.65,7,"[1, 6, 7]",3,True,CHN,aromatic
5180,3-ethenylpiperidine,C=CC1CCCNC1,426.65,7,"[1, 6, 7]",3,True,CHN,alkene
5181,hept-1-en-3-ol,CCCCC(C=C)O,426.9,7,"[1, 6, 8]",3,True,CHO,alkene
5182,methyl hex-2-ynoate,CCCC#CC(=O)OC,426.98,7,"[1, 6, 8]",3,True,CHO,ester
5183,ethyl pent-3-ynoate,CCOC(=O)CC#CC,426.98,7,"[1, 6, 8]",3,True,CHO,ester
5184,ethyl pent-2-ynoate,CCC#CC(=O)OCC,426.98,7,"[1, 6, 8]",3,True,CHO,ester
5185,2-[3-(oxiran-2-yl)propyl]oxirane,C1C(O1)CCCC2CO2,427.14,7,"[1, 6, 8]",3,True,CHO,ester
5186,(E)-hept-3-en-2-one,CCC/C=C/C(=O)C,427.15,7,"[1, 6, 8]",3,True,CHO,alkene
5187,methyl cyclopentanecarboxylate,COC(=O)C1CCCC1,427.4,7,"[1, 6, 8]",3,True,CHO,ester
5188,"2,2-dimethyl-4,5-dimethylidene-1,3-dioxolane",CC1(OC(=C)C(=C)O1)C,427.5,7,"[1, 6, 8]",3,True,CHO,ester
5189,"(E)-1-(1,1-dimethoxyethoxy)prop-1-ene",C/C=C/OC(C)(OC)OC,427.95,7,"[1, 6, 8]",3,True,CHO,ester
5190,"(Z)-1-(1,1-dimethoxyethoxy)prop-1-ene",C/C=C\OC(C)(OC)OC,427.95,7,"[1, 6, 8]",3,True,CHO,ester
5191,[(Z)-hex-3-enyl] formate,CC/C=C\CCOC=O,428.15,7,"[1, 6, 8]",3,True,CHO,ester
5192,(3-methylidenecyclobutyl) acetate,CC(=O)OC1CC(=C)C1,428.15,7,"[1, 6, 8]",3,True,CHO,ester
5193,"2-butan-2-yl-1,3-dioxolane",CCC(C)C1OCCO1,428.5,7,"[1, 6, 8]",3,True,CHO,ester
5194,"5-ethyl-2-methyl-1,3-dioxane",CCC1COC(OC1)C,428.54,7,"[1, 6, 8]",3,True,CHO,ester
5195,"2-ethyl-5-methyl-1,3-dioxane",CCC1OCC(CO1)C,428.54,7,"[1, 6, 8]",3,True,CHO,ester
5196,2-ethoxyoxane,CCOC1CCCCO1,428.68,7,"[1, 6, 8]",3,True,CHO,ester
5197,"2,2,4-trimethyl-1,3-dioxane",CC1CCOC(O1)(C)C,428.78,7,"[1, 6, 8]",3,True,CHO,ester
5198,"4,4,6-trimethyl-1,3-dioxane",CC1CC(OCO1)(C)C,428.78,7,"[1, 6, 8]",3,True,CHO,ester
5199,heptyl nitrite,CCCCCCCON=O,428.95,7,"[1, 6, 7, 8]",4,True,CHON,ester
5200,N-but-3-enyl-N-prop-2-enylnitrous amide,C=CCCN(CC=C)N=O,428.96,7,"[1, 6, 7, 8]",4,True,CHON,alkene
5201,6-ethyloxan-2-one,CCC1CCCC(=O)O1,428.99,7,"[1, 6, 8]",3,True,CHO,ester
5202,"3,3,5-trimethylfuran-2-one",CC1=CC(C(=O)O1)(C)C,429.1,7,"[1, 6, 8]",3,True,CHO,ester
5203,(E)-5-methylhex-3-en-2-one,CC(C)/C=C/C(=O)C,429.15,7,"[1, 6, 8]",3,True,CHO,alkene
5204,"(5E)-hepta-1,5-dien-4-ol",C/C=C/C(CC=C)O,429.15,7,"[1, 6, 8]",3,True,CHO,alkene
5205,2-azabicyclo[2.2.2]oct-5-ene,C1CC2C=CC1CN2,429.49,7,"[1, 6, 7]",3,True,CHN,alkene
5206,3-azabicyclo[3.2.1]oct-6-ene,C1C2CNCC1C=C2,429.49,7,"[1, 6, 7]",3,True,CHN,alkene
5207,bicyclo[2.2.1]heptan-2-amine,C1CC2CC1CC2N,429.65,7,"[1, 6, 7]",3,True,CHN,amine
5208,"3-methoxy-2,2-dimethylcyclobutan-1-one",CC1(C(CC1=O)OC)C,430.15,7,"[1, 6, 8]",3,True,CHO,ester
5209,1-(diethylamino)propan-2-ol,CCN(CC)CC(C)O,430.15,7,"[1, 6, 7, 8]",4,True,CHON,alcohol
5210,"1,1,3-trimethoxybutane",CC(CC(OC)OC)OC,430.15,7,"[1, 6, 8]",3,True,CHO,ester
5211,2-azabicyclo[2.2.2]octane,C1CC2CCC1CN2,430.33,7,"[1, 6, 7]",3,True,CHN,amine
5212,2-ethylcyclopentan-1-one,CCC1CCCC1=O,430.65,7,"[1, 6, 8]",3,True,CHO,ketone
5213,3-(methoxymethyl)pentan-3-ol,CCC(CC)(COC)O,431.1,7,"[1, 6, 8]",3,True,CHO,ester
5214,"3-pyrrolidin-1-ylpropane-1,2-diol",C1CCN(C1)CC(CO)O,431.15,7,"[1, 6, 7, 8]",4,True,CHON,alcohol
5215,2-oxabicyclo[2.2.2]octan-3-one,C1CC2CCC1C(=O)O2,431.46,7,"[1, 6, 8]",3,True,CHO,ester
5216,2-cyclopentylethanamine,C1CCC(C1)CCN,431.65,7,"[1, 6, 7]",3,True,CHN,amine
5217,(E)-hept-2-en-4-one,CCCC(=O)/C=C/C,432.15,7,"[1, 6, 8]",3,True,CHO,alkene
5218,3-propylpyrrolidine,CCCC1CCNC1,432.15,7,"[1, 6, 7]",3,True,CHN,amine
5219,cyclopent-2-en-1-yl acetate,CC(=O)OC1CCC=C1,432.42,7,"[1, 6, 8]",3,True,CHO,ester
5220,1-propan-2-ylpiperazine,CC(C)N1CCNCC1,432.65,7,"[1, 6, 7]",3,True,CHN,amine
5221,2-(2-methylpropoxymethyl)oxirane,CC(C)COCC1CO1,432.65,7,"[1, 6, 8]",3,True,CHO,ester
5222,"2,3,3-trimethylbutan-1-ol",CC(CO)C(C)(C)C,433.15,7,"[1, 6, 8]",3,True,CHO,alcohol
5223,8-azabicyclo[3.2.1]oct-2-ene,C1CC2C=CCC1N2,433.25,7,"[1, 6, 7]",3,True,CHN,alkene
5224,"1,2-dimethoxycyclopentene",COC1=C(CCC1)OC,433.67,7,"[1, 6, 8]",3,True,CHO,ester
5225,"methyl 2,3-dimethylcycloprop-2-ene-1-carboxylate",CC1=C(C1C(=O)OC)C,433.84,7,"[1, 6, 8]",3,True,CHO,ester
5226,"spiro[2,3-dioxabicyclo[2.2.1]heptane-7,1'-cyclopropane]",C1CC2C3(C1OO2)CC3,434.12,7,"[1, 6, 8]",3,True,CHO,ester
5227,"2,2,3-trimethylcyclobutan-1-one",CC1CC(=O)C1(C)C,434.16,7,"[1, 6, 8]",3,True,CHO,ketone
5228,ethyl (E)-3-(dimethylamino)prop-2-enoate,CCOC(=O)/C=C/N(C)C,434.58,7,"[1, 6, 7, 8]",4,True,CHON,ester
5229,"tricyclo[2.2.1.02,6]heptan-3-one",C1C2CC3C1C3C2=O,434.59,7,"[1, 6, 8]",3,True,CHO,ketone
5230,2-(tert-butylperoxymethyl)oxirane,CC(C)(C)OOCC1CO1,435.06,7,"[1, 6, 8]",3,True,CHO,ester
5231,hept-1-yn-3-ol,CCCCC(C#C)O,435.15,7,"[1, 6, 8]",3,True,CHO,alkyne
5232,2-ethyl-3-methylbutan-1-ol,CCC(CO)C(C)C,435.15,7,"[1, 6, 8]",3,True,CHO,alcohol
5233,1-tert-butylimidazole,CC(C)(C)N1C=CN=C1,436.67,7,"[1, 6, 7]",3,True,CHN,aromatic
5234,cyclohexene-1-carbaldehyde,C1CCC(=CC1)C=O,436.78,7,"[1, 6, 8]",3,True,CHO,alkene
5235,2-methoxyethyl 2-methylprop-2-enoate,CC(=C)C(=O)OCCOC,436.96,7,"[1, 6, 8]",3,True,CHO,ester
5236,methyl 2-(aziridin-1-yl)butanoate,CCC(C(=O)OC)N1CC1,437.12,7,"[1, 6, 7, 8]",4,True,CHON,ester
5237,"2,3-dimethylpentan-1-ol",CCC(C)C(C)CO,437.15,7,"[1, 6, 8]",3,True,CHO,alcohol
5238,1-(cyclopenten-1-yl)ethanone,CC(=O)C1=CCCC1,437.72,7,"[1, 6, 8]",3,True,CHO,alkene
5239,"3,4-dimethylpentan-1-ol",CC(C)C(C)CCO,438.0,7,"[1, 6, 8]",3,True,CHO,alcohol
5240,"2,2-diethoxy-N-methylethanamine",CCOC(CNC)OCC,438.15,7,"[1, 6, 7, 8]",4,True,CHON,ester
5241,"3,4-dimethylcyclopentan-1-one",CC1CC(=O)CC1C,438.19,7,"[1, 6, 8]",3,True,CHO,ketone
5242,"3-(dimethylamino)-N,N-dimethylpropanamide",CN(C)CCC(=O)N(C)C,438.51,7,"[1, 6, 7, 8]",4,True,CHON,amide
5243,4-[dimethylamino(methyl)amino]butan-2-one,CC(=O)CCN(C)N(C)C,438.51,7,"[1, 6, 7, 8]",4,True,CHON,ketone
5244,"2,2-dimethylpentan-1-ol",CCCC(C)(C)CO,438.9,7,"[1, 6, 8]",3,True,CHO,alcohol
5245,"5-prop-1-en-2-yl-1,3-dioxane",CC(=C)C1COCOC1,439.15,7,"[1, 6, 8]",3,True,CHO,ester
5246,prop-2-enyl 2-hydroxy-2-methylpropanoate,CC(C)(C(=O)OCC=C)O,439.15,7,"[1, 6, 8]",3,True,CHO,ester
5247,2-(diethylamino)propan-1-ol,CCN(CC)C(C)CO,439.15,7,"[1, 6, 7, 8]",4,True,CHON,alcohol
5248,3-ethylpentan-1-ol,CCC(CC)CCO,439.15,7,"[1, 6, 8]",3,True,CHO,alcohol
5249,1-butylpyrazole,CCCCN1C=CC=N1,439.9,7,"[1, 6, 7]",3,True,CHN,aromatic
5250,"6,7-dioxabicyclo[3.2.2]nonane",C1CC2CCC(C1)OO2,439.95,7,"[1, 6, 8]",3,True,CHO,ester
5251,"7,8-dioxabicyclo[4.2.1]nonane",C1CCC2CC(C1)OO2,439.95,7,"[1, 6, 8]",3,True,CHO,ester
5252,2-propan-2-yloxyethyl acetate,CC(C)OCCOC(=O)C,439.96,7,"[1, 6, 8]",3,True,CHO,ester
5253,1-methoxypropan-2-yl propanoate,CCC(=O)OC(C)COC,439.96,7,"[1, 6, 8]",3,True,CHO,ester
5254,cycloheptanamine,C1CCCC(CC1)N,440.15,7,"[1, 6, 7]",3,True,CHN,amine
5255,1-cyclopentylethanol,CC(C1CCCC1)O,440.15,7,"[1, 6, 8]",3,True,CHO,alcohol
5256,2-propoxyethyl acetate,CCCOCCOC(=O)C,440.4,7,"[1, 6, 8]",3,True,CHO,ester
5257,3-hydroxy-3-methylhexan-2-one,CCCC(C)(C(=O)C)O,440.65,7,"[1, 6, 8]",3,True,CHO,alcohol
5258,2-(dimethylamino)ethyl propanoate,CCC(=O)OCCN(C)C,440.65,7,"[1, 6, 7, 8]",4,True,CHON,ester
5259,"ethyl N,N-diethylcarbamate",CCN(CC)C(=O)OCC,441.15,7,"[1, 6, 7, 8]",4,True,CHON,ester
5260,4-(2-methoxyethyl)morpholine,COCCN1CCOCC1,441.52,7,"[1, 6, 7, 8]",4,True,CHON,ester
5261,butyl ethyl carbonate,CCCCOC(=O)OCC,441.65,7,"[1, 6, 8]",3,True,CHO,ester
5262,methyl cyclopentene-1-carboxylate,COC(=O)C1=CCCC1,442.07,7,"[1, 6, 8]",3,True,CHO,ester
5263,oxocan-2-one,C1CCCOC(=O)CC1,442.2,7,"[1, 6, 8]",3,True,CHO,ester
5264,(Z)-hept-3-en-1-ol,CCC/C=C\CCO,442.65,7,"[1, 6, 8]",3,True,CHO,alkene
5265,3-ethylcyclopentan-1-one,CCC1CCC(=O)C1,442.86,7,"[1, 6, 8]",3,True,CHO,ketone
5266,3-(trimethoxymethoxy)prop-1-ene,COC(OC)(OC)OCC=C,442.89,7,"[1, 6, 8]",3,True,CHO,ester
5267,"3,4,6,7,8,9-hexahydro-1H-pyridazino[1,2-c][1,3,4]oxadiazine",C1CCN2COCCN2C1,442.95,7,"[1, 6, 7, 8]",4,True,CHON,ester
5268,"2,2-dimethylcyclopentan-1-one",CC1(CCCC1=O)C,443.1,7,"[1, 6, 8]",3,True,CHO,ketone
5269,"2,6-dimethyloxan-4-one",CC1CC(=O)CC(O1)C,443.15,7,"[1, 6, 8]",3,True,CHO,ester
5270,N-(oxolan-2-ylmethyl)ethanamine,CCNCC1CCCO1,443.65,7,"[1, 6, 7, 8]",4,True,CHON,ester
5271,"1,4-dioxaspiro[4.4]non-8-ene",C1CC2(C=C1)OCCO2,444.02,7,"[1, 6, 8]",3,True,CHO,ester
5272,4-methylcyclohex-3-en-1-one,CC1=CCC(=O)CC1,444.15,7,"[1, 6, 8]",3,True,CHO,alkene
5273,3-butoxypropanenitrile,CCCCOCCC#N,444.15,7,"[1, 6, 7, 8]",4,True,CHON,ester
5274,diethoxymethyl acetate,CCOC(OCC)OC(=O)C,444.15,7,"[1, 6, 8]",3,True,CHO,ester
5275,4-methylhexan-1-ol,CCC(C)CCCO,444.28091,7,"[1, 6, 8]",3,True,CHO,alcohol
5276,bicyclo[2.2.1]hept-2-en-7-one,C1CC2C=CC1C2=O,444.49,7,"[1, 6, 8]",3,True,CHO,alkene
5277,bicyclo[2.2.1]hept-5-en-2-one,C1C2CC(=O)C1C=C2,444.49,7,"[1, 6, 8]",3,True,CHO,alkene
5278,"2-methylhexa-1,5-dien-3-ol",CC(=C)C(CC=C)O,444.74,7,"[1, 6, 8]",3,True,CHO,alkene
5279,"5-methylhexa-1,5-dien-3-ol",CC(=C)CC(C=C)O,444.74,7,"[1, 6, 8]",3,True,CHO,alkene
5280,"2,3-dimethylpent-4-en-2-ol",CC(C=C)C(C)(C)O,444.95,7,"[1, 6, 8]",3,True,CHO,alkene
5281,2-propan-2-yl-1H-pyrrole,CC(C)C1=CC=CN1,445.15,7,"[1, 6, 7]",3,True,CHN,aromatic
5282,"1-(3,4-dihydro-2H-pyridin-1-yl)ethanone",CC(=O)N1CCCC=C1,445.18,7,"[1, 6, 7, 8]",4,True,CHON,amide
5283,bicyclo[2.2.1]heptan-7-one,C1CC2CCC1C2=O,445.33,7,"[1, 6, 8]",3,True,CHO,ketone
5284,3-butoxypropan-1-amine,CCCCOCCCN,446.15,7,"[1, 6, 7, 8]",4,True,CHON,ester
5285,"2,6-dimethoxyoxane",COC1CCCC(O1)OC,446.43,7,"[1, 6, 8]",3,True,CHO,ester
5286,"2,4-dimethylpent-1-en-3-ol",CC(C)C(C(=C)C)O,447.62,7,"[1, 6, 8]",3,True,CHO,alkene
5287,azocane,C1CCCNCCC1,447.65,7,"[1, 6, 7]",3,True,CHN,amine
5288,2-methylhex-5-en-3-ol,CC(C)C(CC=C)O,447.74,7,"[1, 6, 8]",3,True,CHO,alkene
5289,5-methylhex-5-en-2-ol,CC(CCC(=C)C)O,448.06,7,"[1, 6, 8]",3,True,CHO,alkene
5290,5-methylhex-5-en-3-ol,CCC(CC(=C)C)O,448.06,7,"[1, 6, 8]",3,True,CHO,alkene
5291,4-ethoxypiperidine,CCOC1CCNCC1,448.15,7,"[1, 6, 7, 8]",4,True,CHON,ester
5292,methyl hex-5-enoate,COC(=O)CCCC=C,448.15,7,"[1, 6, 8]",3,True,CHO,ester
5293,ethyl 2-hydroxypentanoate,CCCC(C(=O)OCC)O,448.15,7,"[1, 6, 8]",3,True,CHO,ester
5294,hept-6-en-3-ol,CCC(CCC=C)O,448.18,7,"[1, 6, 8]",3,True,CHO,alkene
5295,"N,N-dimethyl-N'-(2-methylpropyl)methanimidamide",CC(C)CN=CN(C)C,448.44,7,"[1, 6, 7]",3,True,CHN,amine
5296,"N'-butan-2-yl-N,N-dimethylmethanimidamide",CCC(C)N=CN(C)C,448.44,7,"[1, 6, 7]",3,True,CHN,amine
5297,"heptane-2,4-dione",CCCC(=O)CC(=O)C,448.65,7,"[1, 6, 8]",3,True,CHO,ketone
5298,"7a-ethyl-1,3,5,7-tetrahydro-[1,3]oxazolo[3,4-c][1,3]oxazole",CCC12COCN1COC2,448.76,7,"[1, 6, 7, 8]",4,True,CHON,ester
5299,2-methoxycyclohexan-1-ol,COC1CCCCC1O,450.65,7,"[1, 6, 8]",3,True,CHO,ester
5300,2-methylhexan-1-ol,CCCCC(C)CO,451.5,7,"[1, 6, 8]",3,True,CHO,alcohol