,Name,SMILES,Tb,C Atom,Atom,Count Unique Atom,Pass Screen,Atom2,Func. Group
8846,"1-(4-ethyl-3,5-dimethyl-1H-pyrrol-2-yl)ethanone",CCC1=C(NC(=C1C)C(=O)C)C,529.15,10,"[1, 6, 7, 8]",4,True,CHON,aromatic
8847,2-methyl-5-propan-2-ylbicyclo[3.1.0]hexan-2-ol,CC(C)C12CCC(C1C2)(C)O,529.43,10,"[1, 6, 8]",3,True,CHO,alcohol
8848,"2,6,6-trimethylbicyclo[3.1.1]heptan-2-ol",CC1(C2CCC(C1C2)(C)O)C,529.47,10,"[1, 6, 8]",3,True,CHO,alcohol
8849,"3,7,7-trimethylbicyclo[4.1.0]heptan-3-ol",CC1(C2C1CC(CC2)(C)O)C,529.47,10,"[1, 6, 8]",3,True,CHO,alcohol
8850,dec-2-yn-1-ol,CCCCCCCC#CCO,529.58,10,"[1, 6, 8]",3,True,CHO,alkyne
8851,dec-3-yn-1-ol,CCCCCCC#CCCO,529.58,10,"[1, 6, 8]",3,True,CHO,alkyne
8852,dec-5-yn-1-ol,CCCCC#CCCCCO,529.58,10,"[1, 6, 8]",3,True,CHO,alkyne
8853,oxan-2-ylmethyl 2-methylprop-2-enoate,CC(=C)C(=O)OCC1CCCCO1,529.68,10,"[1, 6, 8]",3,True,CHO,ester
8854,2-(tert-butylamino)ethyl 2-methylprop-2-enoate,CC(=C)C(=O)OCCNC(C)(C)C,530.12,10,"[1, 6, 7, 8]",4,True,CHON,ester
8855,5-methylidene-6-prop-1-en-2-ylcyclohex-2-en-1-ol,CC(=C)C1C(C=CCC1=C)O,530.34,10,"[1, 6, 8]",3,True,CHO,alkene
8856,2-methyl-5-propan-2-ylcyclohexan-1-ol,CC1CCC(CC1O)C(C)C,530.35,10,"[1, 6, 8]",3,True,CHO,alcohol
8857,"3,6-dimethyloct-6-en-4-yn-3-ol",CCC(C)(C#CC(=CC)C)O,530.39,10,"[1, 6, 8]",3,True,CHO,alkene
8858,spiro[4.5]dec-9-en-8-one,C1CCC2(C1)CCC(=O)C=C2,530.85,10,"[1, 6, 8]",3,True,CHO,alkene
8859,"(3E)-3,7-dimethylocta-3,7-dienenitrile",CC(=C)CC/C=C(\C)/CC#N,531.08,10,"[1, 6, 7]",3,True,CHN,alkene
8860,"(2E)-3,7-dimethylocta-2,7-dienenitrile",CC(=C)CCC/C(=C/C#N)/C,531.08,10,"[1, 6, 7]",3,True,CHN,alkene
8861,3-methyl-6-propan-2-ylidenecyclohex-2-en-1-one,CC1=CC(=O)C(=C(C)C)CC1,531.1,10,"[1, 6, 8]",3,True,CHO,alkene
8862,2-phenoxybutanoic acid,CCC(C(=O)O)OC1=CC=CC=C1,531.15,10,"[1, 6, 8]",3,True,CHO,carboxylic_acid
8863,8-methylisoquinoline,CC1=C2C=NC=CC2=CC=C1,531.15,10,"[1, 6, 7]",3,True,CHN,aromatic
8864,2-pentylcyclopentan-1-ol,CCCCCC1CCCC1O,531.19,10,"[1, 6, 8]",3,True,CHO,alcohol
8865,"3,3,5,5-tetramethylcyclohexan-1-ol",CC1(CC(CC(C1)(C)C)O)C,531.27,10,"[1, 6, 8]",3,True,CHO,alcohol
8866,4-tert-butylcyclohex-2-en-1-ol,CC(C)(C)C1CCC(C=C1)O,531.39,10,"[1, 6, 8]",3,True,CHO,alkene
8867,1-methyl-4-prop-1-en-2-ylcyclohex-2-en-1-ol,CC(=C)C1CCC(C=C1)(C)O,531.42,10,"[1, 6, 8]",3,True,CHO,alkene
8868,2-(4-methoxyphenyl)-N-methylethanamine,CNCCC1=CC=C(C=C1)OC,531.65,10,"[1, 6, 7, 8]",4,True,CHON,ester
8869,"3,3,6,6-tetramethoxycyclohexa-1,4-diene",COC1(C=CC(C=C1)(OC)OC)OC,531.76,10,"[1, 6, 8]",3,True,CHO,ester
8870,1-(3-methoxyphenyl)propan-2-one,CC(=O)CC1=CC(=CC=C1)OC,532.15,10,"[1, 6, 8]",3,True,CHO,ester
8871,2-tert-butylcyclohexan-1-ol,CC(C)(C)C1CCCCC1O,532.23,10,"[1, 6, 8]",3,True,CHO,alcohol
8872,N-hexylbutanamide,CCCCCCNC(=O)CCC,532.44,10,"[1, 6, 7, 8]",4,True,CHON,amide
8873,"2,2,6-trimethylheptane-3,5-dione",CC(C)C(=O)CC(=O)C(C)(C)C,532.47,10,"[1, 6, 8]",3,True,CHO,ketone
8874,"3-(dimethylamino)-5,5-dimethylcyclohex-2-en-1-one",CC1(CC(=CC(=O)C1)N(C)C)C,532.59,10,"[1, 6, 7, 8]",4,True,CHON,ketone
8875,4-(dipropylamino)butan-1-ol,CCCN(CCC)CCCCO,533.02,10,"[1, 6, 7, 8]",4,True,CHON,alcohol
8876,1-methyl-4-prop-1-en-2-yl-7-oxabicyclo[4.1.0]heptan-2-one,CC(=C)C1CC2C(O2)(C(=O)C1)C,533.05,10,"[1, 6, 8]",3,True,CHO,ester
8877,methyl 4-ethoxybenzoate,CCOC1=CC=C(C=C1)C(=O)OC,533.15,10,"[1, 6, 8]",3,True,CHO,ester
8878,(4-ethenylphenyl) acetate,CC(=O)OC1=CC=C(C=C1)C=C,533.15,10,"[1, 6, 8]",3,True,CHO,ester
8879,"1,1,2,2-tetramethoxycyclohexane",COC1(CCCCC1(OC)OC)OC,533.44,10,"[1, 6, 8]",3,True,CHO,ester
8880,2-methyl-5-pentyloxolan-3-one,CCCCCC1CC(=O)C(O1)C,533.78,10,"[1, 6, 8]",3,True,CHO,ester
8881,"3,7-dimethyloct-6-enenitrile",CC(CCC=C(C)C)CC#N,534.08,10,"[1, 6, 7]",3,True,CHN,alkene
8882,ethyl (2-methoxyphenyl) carbonate,CCOC(=O)OC1=CC=CC=C1OC,534.15,10,"[1, 6, 8]",3,True,CHO,ester
8883,"(10Z)-10-ethylidene-2-oxa-6-azatricyclo[5.3.0.01,3]dec-8-ene",C/C=C\1/C=CC2C13C(O3)CCN2,534.43,10,"[1, 6, 7, 8]",4,True,CHON,ester
8884,3-methylnon-2-enenitrile,CCCCCCC(=CC#N)C,534.52,10,"[1, 6, 7]",3,True,CHN,alkene
8885,(Z)-dec-2-enenitrile,CCCCCCC/C=C\C#N,534.64,10,"[1, 6, 7]",3,True,CHN,alkene
8886,"2,3,5,6-tetramethylaniline",CC1=CC(=C(C(=C1C)N)C)C,534.65,10,"[1, 6, 7]",3,True,CHN,aromatic
8887,"tricyclo[5.2.1.02,6]dec-4-en-8-ol",C1C=CC2C1C3CC2C(C3)O,534.89,10,"[1, 6, 8]",3,True,CHO,alkene
8888,4-butan-2-ylcyclohexan-1-ol,CCC(C)C1CCC(CC1)O,535.02,10,"[1, 6, 8]",3,True,CHO,alcohol
8889,[4-(ethenoxymethyl)cyclohexyl]methanol,C=COCC1CCC(CC1)CO,535.15,10,"[1, 6, 8]",3,True,CHO,ester
8890,"N,N-diethyl-4-methylpiperazine-1-carboxamide",CCN(CC)C(=O)N1CCN(CC1)C,535.27,10,"[1, 6, 7, 8]",4,True,CHON,amide
8891,methyl 9-oxononanoate,COC(=O)CCCCCCCC=O,535.28,10,"[1, 6, 8]",3,True,CHO,ester
8892,2-butylcyclohexan-1-ol,CCCCC1CCCCC1O,535.46,10,"[1, 6, 8]",3,True,CHO,alcohol
8893,"4,4a,5,6,7,8-hexahydro-3H-naphthalen-2-one",C1CCC2=CC(=O)CCC2C1,535.59,10,"[1, 6, 8]",3,True,CHO,alkene
8894,"9-oxatetracyclo[5.4.0.03,10.04,8]undec-5-en-2-one",C1C2C3C=CC4C3OC1C4C2=O,535.68,10,"[1, 6, 8]",3,True,CHO,ester
8895,adamantan-2-ol,C1C2CC3CC1CC(C2)C3O,535.73,10,"[1, 6, 8]",3,True,CHO,alcohol
8896,2-(4-methylidenecyclohexyl)prop-2-en-1-ol,C=C1CCC(CC1)C(=C)CO,535.85,10,"[1, 6, 8]",3,True,CHO,alkene
8897,6-methyl-3-propan-2-yl-7-oxabicyclo[4.1.0]heptan-2-one,CC(C)C1CCC2(C(C1=O)O2)C,536.05,10,"[1, 6, 8]",3,True,CHO,ester
8898,"decane-5,6-dione",CCCCC(=O)C(=O)CCCC,536.14,10,"[1, 6, 8]",3,True,CHO,ketone
8899,"dimethyl cyclohexane-1,3-dicarboxylate",COC(=O)C1CCCC(C1)C(=O)OC,536.2,10,"[1, 6, 8]",3,True,CHO,ester
8900,"1,4-bis(oxiran-2-ylmethyl)piperazine",C1CN(CCN1CC2CO2)CC3CO3,536.34,10,"[1, 6, 7, 8]",4,True,CHON,ester
8901,"ethyl 2,2,4-trimethyl-3-oxopentanoate",CCOC(=O)C(C)(C)C(=O)C(C)C,536.82,10,"[1, 6, 8]",3,True,CHO,ester
8902,1-cyclohexyl-2-methylpropan-2-ol,CC(C)(CC1CCCCC1)O,536.9,10,"[1, 6, 8]",3,True,CHO,alcohol
8903,1-tert-butylcyclohexan-1-ol,CC(C)(C)C1(CCCCC1)O,537.14,10,"[1, 6, 8]",3,True,CHO,alcohol
8904,"ethyl 2-ethyl-5-methyl-2,3-dihydrofuran-4-carboxylate",CCC1CC(=C(O1)C)C(=O)OCC,537.97,10,"[1, 6, 8]",3,True,CHO,ester
8905,bis(ethenyl) hexanedioate,C=COC(=O)CCCCC(=O)OC=C,538.2,10,"[1, 6, 8]",3,True,CHO,ester
8906,1-ethynylcyclooctan-1-ol,C#CC1(CCCCCCC1)O,539.03,10,"[1, 6, 8]",3,True,CHO,alkyne
8907,ethyl 2-(methylamino)benzoate,CCOC(=O)C1=CC=CC=C1NC,539.15,10,"[1, 6, 7, 8]",4,True,CHON,ester
8908,3-methyl-6-propan-2-ylcyclohex-2-en-1-ol,CC1=CC(C(CC1)C(C)C)O,539.16,10,"[1, 6, 8]",3,True,CHO,alkene
8909,2-(oxolan-2-ylmethoxy)oxane,C1CCOC(C1)OCC2CCCO2,539.55,10,"[1, 6, 8]",3,True,CHO,ester
8910,1-cyclohexylbutan-1-ol,CCCC(C1CCCCC1)O,539.69,10,"[1, 6, 8]",3,True,CHO,alcohol
8911,"(1,2,4-trimethylcyclohex-3-en-1-yl)methanol",CC1C=C(CCC1(C)CO)C,539.84,10,"[1, 6, 8]",3,True,CHO,alkene
8912,ethyl 3-methyl-4-oxoheptanoate,CCCC(=O)C(C)CC(=O)OCC,540.05,10,"[1, 6, 8]",3,True,CHO,ester
8913,4-cyclohexylbutan-1-ol,C1CCC(CC1)CCCCO,540.13,10,"[1, 6, 8]",3,True,CHO,alcohol
8914,"3-methyl-6-propan-2-ylbenzene-1,2-diol",CC1=C(C(=C(C=C1)C(C)C)O)O,540.15,10,"[1, 6, 8]",3,True,CHO,aromatic
8915,"2-(4-methylcyclohexa-2,4-dien-1-yl)propan-2-ol",CC1=CCC(C=C1)C(C)(C)O,540.2,10,"[1, 6, 8]",3,True,CHO,alkene
8916,1-butylcyclohexan-1-ol,CCCCC1(CCCCC1)O,540.37,10,"[1, 6, 8]",3,True,CHO,alcohol
8917,hexyl 3-oxobutanoate,CCCCCCOC(=O)CC(=O)C,540.49,10,"[1, 6, 8]",3,True,CHO,ester
8918,pentyl 4-oxopentanoate,CCCCCOC(=O)CCC(=O)C,540.49,10,"[1, 6, 8]",3,True,CHO,ester
8919,butyl 5-oxohexanoate,CCCCOC(=O)CCCC(=O)C,540.49,10,"[1, 6, 8]",3,True,CHO,ester
8920,adamantan-1-ol,C1C2CC3CC1CC(C2)(C3)O,540.64,10,"[1, 6, 8]",3,True,CHO,alcohol
8921,2-(4-methylcyclohex-3-en-1-yl)prop-2-en-1-ol,CC1=CCC(CC1)C(=C)CO,540.83,10,"[1, 6, 8]",3,True,CHO,alkene
8922,dimethyl 2-methyl-5-methylidenehexanedioate,CC(CCC(=C)C(=O)OC)C(=O)OC,540.96,10,"[1, 6, 8]",3,True,CHO,ester
8923,2-methyl-2-[2-[(2-methyloxiran-2-yl)methoxy]ethoxymethyl]oxirane,CC1(CO1)COCCOCC2(CO2)C,541.1,10,"[1, 6, 8]",3,True,CHO,ester
8924,2-(2-phenylethylamino)ethanol,C1=CC=C(C=C1)CCNCCO,541.15,10,"[1, 6, 7, 8]",4,True,CHON,aromatic
8925,"2,6-dimethylquinoxaline",CC1=CC2=NC=C(N=C2C=C1)C,541.15,10,"[1, 6, 7]",3,True,CHN,aromatic
8926,(4-acetyloxy-4-methylpentan-2-yl) acetate,CC(CC(C)(C)OC(=O)C)OC(=O)C,541.17,10,"[1, 6, 8]",3,True,CHO,ester
8927,"N,N'-diethyl-N'-[2-(ethylamino)ethyl]ethane-1,2-diamine",CCNCCN(CC)CCNCC,541.18,10,"[1, 6, 7]",3,True,CHN,amine
8928,2-[bis(2-methylpropyl)amino]acetonitrile,CC(C)CN(CC#N)CC(C)C,542.04,10,"[1, 6, 7]",3,True,CHN,amine
8929,"1-propan-2-yl-2,3,4,6,7,8-hexahydropyrimido[1,2-a]pyrimidine",CC(C)N1CCCN2C1=NCCC2,542.04,10,"[1, 6, 7]",3,True,CHN,amine
8930,3-methylbicyclo[2.2.2]oct-5-ene-2-carbonitrile,CC1C2CCC(C1C#N)C=C2,542.32,10,"[1, 6, 7]",3,True,CHN,alkene
8931,4-prop-2-enoyloxybut-2-enyl prop-2-enoate,C=CC(=O)OCC=CCOC(=O)C=C,542.36,10,"[1, 6, 8]",3,True,CHO,ester
8932,3-acetyl-5-butyloxolan-2-one,CCCCC1CC(C(=O)O1)C(=O)C,542.56,10,"[1, 6, 8]",3,True,CHO,ester
8933,"3-ethoxy-5,5-dimethylcyclohex-2-en-1-one",CCOC1=CC(=O)CC(C1)(C)C,542.57,10,"[1, 6, 8]",3,True,CHO,ester
8934,2-piperidin-3-ylpiperidine,C1CCNC(C1)C2CCCNC2,542.65,10,"[1, 6, 7]",3,True,CHN,amine
8935,"5,5-dimethyl-4-(3-oxobutyl)oxolan-2-one",CC(=O)CCC1CC(=O)OC1(C)C,542.8,10,"[1, 6, 8]",3,True,CHO,ester
8936,4-(dipropylamino)butanenitrile,CCCN(CCC)CCCC#N,542.92,10,"[1, 6, 7]",3,True,CHN,amine
8937,2-octoxyethanol,CCCCCCCCOCCO,543.0,10,"[1, 6, 8]",3,True,CHO,ester
8938,9-(dimethylamino)-9-azabicyclo[3.3.1]nonan-3-one,CN(C)N1C2CCCC1CC(=O)C2,543.12,10,"[1, 6, 7, 8]",4,True,CHON,ketone
8939,"1,8,8-trimethyl-3-oxabicyclo[3.2.1]octane-2,4-dione",CC1(C2CCC1(C(=O)OC2=O)C)C,543.15,10,"[1, 6, 8]",3,True,CHO,ether
8940,2-(4-methylcyclohexen-1-yl)propan-1-ol,CC1CCC(=CC1)C(C)CO,543.83,10,"[1, 6, 8]",3,True,CHO,alkene
8941,2-(4-methylcyclohex-3-en-1-yl)propan-1-ol,CC1=CCC(CC1)C(C)CO,543.83,10,"[1, 6, 8]",3,True,CHO,alkene
8942,(E)-1-cyclohexylbut-2-en-1-ol,C/C=C/C(C1CCCCC1)O,543.85,10,"[1, 6, 8]",3,True,CHO,alkene
8943,1-cyclohexylpyrrolidin-2-one,C1CCC(CC1)N2CCCC2=O,543.89,10,"[1, 6, 7, 8]",4,True,CHON,amide
8944,dipropan-2-yl butanedioate,CC(C)OC(=O)CCC(=O)OC(C)C,543.96,10,"[1, 6, 8]",3,True,CHO,ester
8945,1-methyl-4-propan-2-ylcyclohex-3-en-1-ol,CC(C)C1=CCC(CC1)(C)O,544.07,10,"[1, 6, 8]",3,True,CHO,alkene
8946,(1S)-4-methyl-1-propan-2-ylcyclohex-3-en-1-ol,CC1=CC[C@@](CC1)(C(C)C)O,544.07,10,"[1, 6, 8]",3,True,CHO,alkene
8947,diethyl 3-methylpentanedioate,CCOC(=O)CC(C)CC(=O)OCC,544.4,10,"[1, 6, 8]",3,True,CHO,ester
8948,diethyl 2-methylpentanedioate,CCOC(=O)CCC(C)C(=O)OCC,544.4,10,"[1, 6, 8]",3,True,CHO,ester
8949,ethyl 3-acetyloxyhexanoate,CCCC(CC(=O)OCC)OC(=O)C,544.4,10,"[1, 6, 8]",3,True,CHO,ester
8950,propan-2-yl 2-aminobenzoate,CC(C)OC(=O)C1=CC=CC=C1N,544.6,10,"[1, 6, 7, 8]",4,True,CHON,ester
8951,6-acetyloxyhexyl acetate,CC(=O)OCCCCCCOC(=O)C,544.84,10,"[1, 6, 8]",3,True,CHO,ester
8952,2-methyl-3-phenylpropanoic acid,CC(CC1=CC=CC=C1)C(=O)O,545.15,10,"[1, 6, 8]",3,True,CHO,aromatic
8953,2-cyclopentylidenecyclopentan-1-one,C1CCC(=C2CCCC2=O)C1,545.24,10,"[1, 6, 8]",3,True,CHO,alkene
8954,(E)-4-methyl-1-morpholin-4-ylpent-1-en-3-one,CC(C)C(=O)/C=C/N1CCOCC1,545.33,10,"[1, 6, 7, 8]",4,True,CHON,ester
8955,1-methylazecan-6-one,CN1CCCCC(=O)CCCC1,545.69,10,"[1, 6, 7, 8]",4,True,CHON,ketone
8956,"4-ethyl-2,6-dimethoxyphenol",CCC1=CC(=C(C(=C1)OC)O)OC,546.15,10,"[1, 6, 8]",3,True,CHO,ester
8957,2-propylbenzoic acid,CCCC1=CC=CC=C1C(=O)O,546.15,10,"[1, 6, 8]",3,True,CHO,aromatic
8958,"1,3-dimethyl-3H-indol-2-one",CC1C2=CC=CC=C2N(C1=O)C,546.15,10,"[1, 6, 7, 8]",4,True,CHON,amide
8959,3-(2-methylpropoxy)cyclohex-2-en-1-one,CC(C)COC1=CC(=O)CCC1,546.56,10,"[1, 6, 8]",3,True,CHO,ester
8960,1-methyl-4-propan-2-ylidenecyclohexan-1-ol,CC(=C1CCC(CC1)(C)O)C,546.89,10,"[1, 6, 8]",3,True,CHO,alkene
8961,"(2E)-2-(3,3-dimethylcyclohexylidene)ethanol",CC1(CCC/C(=C\CO)/C1)C,547.01,10,"[1, 6, 8]",3,True,CHO,alkene
8962,6-methyl-3-propan-2-ylidene-7-oxabicyclo[4.1.0]heptan-2-one,CC(=C1CCC2(C(C1=O)O2)C)C,547.68,10,"[1, 6, 8]",3,True,CHO,ester
8963,"(2,2-dimethyl-1,3-dioxolan-4-yl)methyl 2-methylprop-2-enoate",CC(=C)C(=O)OCC1COC(O1)(C)C,547.93,10,"[1, 6, 8]",3,True,CHO,ester
8964,dipropan-2-yl (Z)-but-2-enedioate,CC(C)OC(=O)/C=C\C(=O)OC(C)C,548.12,10,"[1, 6, 8]",3,True,CHO,ester
8965,dipropyl (Z)-but-2-enedioate,CCCOC(=O)/C=C\C(=O)OCCC,549.0,10,"[1, 6, 8]",3,True,CHO,ester
8966,"5-(3,3-dimethyloxiran-2-yl)-3-methylpentan-1-ol",CC(CCC1C(O1)(C)C)CCO,549.4,10,"[1, 6, 8]",3,True,CHO,ester
8967,"(2,6,6-trimethylcyclohexen-1-yl)methanol",CC1=C(C(CCC1)(C)C)CO,549.49,10,"[1, 6, 8]",3,True,CHO,alkene
8968,"(2,4,4-trimethylcyclohexen-1-yl)methanol",CC1=C(CCC(C1)(C)C)CO,549.49,10,"[1, 6, 8]",3,True,CHO,alkene
8969,"3-N,3-N-diethylbenzene-1,3-diamine",CCN(CC)C1=CC=CC(=C1)N,550.15,10,"[1, 6, 7]",3,True,CHN,aromatic
8970,"N'-butylhexane-1,6-diamine",CCCCNCCCCCCN,551.1,10,"[1, 6, 7]",3,True,CHN,amine
8971,"methyl 2-(1,3-benzodioxol-5-yl)acetate",COC(=O)CC1=CC2=C(C=C1)OCO2,551.15,10,"[1, 6, 8]",3,True,CHO,ester
8972,2-methylquinolin-3-amine,CC1=NC2=CC=CC=C2C=C1N,551.15,10,"[1, 6, 7]",3,True,CHN,aromatic
8973,"2,3,4,5,6,7,8,8a-octahydro-1H-naphthalen-4a-ol",C1CCC2(CCCCC2C1)O,551.38,10,"[1, 6, 8]",3,True,CHO,alcohol
8974,N-cyclohexyl-2-methylpropanamide,CC(C)C(=O)NC1CCCCC1,551.55,10,"[1, 6, 7, 8]",4,True,CHON,amide
8975,2-(5-ethenyl-5-methyloxolan-2-yl)propan-2-ol,CC1(CCC(O1)C(C)(C)O)C=C,551.83,10,"[1, 6, 8]",3,True,CHO,ester
8976,N-cyclohexylbutanamide,CCCC(=O)NC1CCCCC1,551.99,10,"[1, 6, 7, 8]",4,True,CHON,amide
8977,3-ethyl-1H-indole,CCC1=CNC2=CC=CC=C21,552.15,10,"[1, 6, 7]",3,True,CHN,aromatic
8978,"3,3,5,5-tetramethyl-4-propan-2-ylidenepyrazole",CC(=C1C(N=NC1(C)C)(C)C)C,552.57,10,"[1, 6, 7]",3,True,CHN,alkene
8979,"(4-propan-2-ylcyclohexa-1,4-dien-1-yl)methanol",CC(C)C1=CCC(=CC1)CO,552.64,10,"[1, 6, 8]",3,True,CHO,alkene
8980,ethyl 2-anilino-2-oxoacetate,CCOC(=O)C(=O)NC1=CC=CC=C1,553.15,10,"[1, 6, 7, 8]",4,True,CHON,ester
8981,dipropan-2-yl (E)-but-2-enedioate,CC(C)OC(=O)/C=C/C(=O)OC(C)C,553.15,10,"[1, 6, 8]",3,True,CHO,ester
8982,diethyl 2-(ethoxymethylidene)propanedioate,CCOC=C(C(=O)OCC)C(=O)OCC,553.2,10,"[1, 6, 8]",3,True,CHO,ester
8983,"N,N'-dimethyl-N'-[2-[methyl-[2-(methylamino)ethyl]amino]ethyl]ethane-1,2-diamine",CNCCN(C)CCN(C)CCNC,553.62,10,"[1, 6, 7]",3,True,CHN,amine
8984,decanamide,CCCCCCCCCC(=O)N,554.8,10,"[1, 6, 7, 8]",4,True,CHON,amide
8985,5-ethenyl-5-methyl-2-propan-2-yloxolan-2-ol,CC(C)C1(CCC(O1)(C)C=C)O,554.86,10,"[1, 6, 8]",3,True,CHO,ester
8986,"6-ethenyl-2,2,6-trimethyloxan-3-ol",CC1(C(CCC(O1)(C)C=C)O)C,554.9,10,"[1, 6, 8]",3,True,CHO,ester
8987,cyclodecanol,C1CCCCC(CCCC1)O,557.21,10,"[1, 6, 8]",3,True,CHO,alcohol
8988,2-(6-methyl-7-oxabicyclo[4.1.0]heptan-3-yl)propan-2-ol,CC12CCC(CC1O2)C(C)(C)O,557.62,10,"[1, 6, 8]",3,True,CHO,ester
8989,"2,6,6-trimethylcyclohexa-1,3-diene-1-carbonitrile",CC1=C(C(CC=C1)(C)C)C#N,558.55,10,"[1, 6, 7]",3,True,CHN,alkene
8990,propan-2-yl 7-aminoheptanoate,CC(C)OC(=O)CCCCCCN,558.71,10,"[1, 6, 7, 8]",4,True,CHON,ester
8991,"dimethyl cyclohex-4-ene-1,2-dicarboxylate",COC(=O)C1CC=CCC1C(=O)OC,558.88,10,"[1, 6, 8]",3,True,CHO,ester
8992,cyclohexyl 3-oxobutanoate,CC(=O)CC(=O)OC1CCCCC1,560.04,10,"[1, 6, 8]",3,True,CHO,ester
8993,prop-2-enyl 2-(2-oxo-2-prop-2-enoxyethoxy)acetate,C=CCOC(=O)COCC(=O)OCC=C,560.62,10,"[1, 6, 8]",3,True,CHO,ester
8994,6-methyl-3-propan-2-yl-7-oxabicyclo[4.1.0]heptan-3-ol,CC(C)C1(CCC2(C(C1)O2)C)O,560.65,10,"[1, 6, 8]",3,True,CHO,ester
8995,1-methyl-4-propan-2-yl-7-oxabicyclo[2.2.1]heptan-2-ol,CC(C)C12CCC(O1)(C(C2)O)C,560.65,10,"[1, 6, 8]",3,True,CHO,ester
8996,"1,3,3-trimethyl-2-oxabicyclo[2.2.2]octan-6-ol",CC1(C2CCC(O1)(C(C2)O)C)C,560.69,10,"[1, 6, 8]",3,True,CHO,ester
8997,"4-oxatetracyclo[6.2.1.02,7.03,5]undecan-3-ol",C1CC2CC1C3C2C4(C(C3)O4)O,561.12,10,"[1, 6, 8]",3,True,CHO,ester
8998,"1-(2,4-dimethoxyphenyl)ethanone",CC(=O)C1=C(C=C(C=C1)OC)OC,561.15,10,"[1, 6, 8]",3,True,CHO,ester
8999,4-phenoxybutanenitrile,C1=CC=C(C=C1)OCCCC#N,561.15,10,"[1, 6, 7, 8]",4,True,CHON,ester
9000,1-[1-[(2-methylpropan-2-yl)oxy]propan-2-yloxy]propan-2-ol,CC(COC(C)COC(C)(C)C)O,561.31,10,"[1, 6, 8]",3,True,CHO,ester
9001,diethyl 2-(dimethylaminomethylidene)propanedioate,CCOC(=O)C(=CN(C)C)C(=O)OCC,561.32,10,"[1, 6, 7, 8]",4,True,CHON,ester
9002,3-acetyl-5-(prop-2-enoxymethyl)oxolan-2-one,CC(=O)C1CC(OC1=O)COCC=C,561.66,10,"[1, 6, 8]",3,True,CHO,ester
9003,1-[(2-methylpropan-2-yl)oxy]-3-propoxypropan-2-ol,CCCOCC(COC(C)(C)C)O,561.75,10,"[1, 6, 8]",3,True,CHO,ester
9004,1-[butyl(nitroso)amino]butyl acetate,CCCCN(C(CCC)OC(=O)C)N=O,562.02,10,"[1, 6, 7, 8]",4,True,CHON,ester
9005,"(3,7,7-trimethyloxepan-2-yl)methanol",CC1CCCC(OC1CO)(C)C,562.25,10,"[1, 6, 8]",3,True,CHO,ester
9006,(8-methyl-8-azabicyclo[3.2.1]octan-3-yl) N-methylcarbamate,CNC(=O)OC1CC2CCC(C1)N2C,562.31,10,"[1, 6, 7, 8]",4,True,CHON,ester
9007,2-[2-[2-(oxiran-2-ylmethoxy)ethoxy]ethoxymethyl]oxirane,C1C(O1)COCCOCCOCC2CO2,563.04,10,"[1, 6, 8]",3,True,CHO,ester
9008,"2-methyl-5-propan-2-ylbenzene-1,4-diol",CC1=CC(=C(C=C1O)C(C)C)O,563.15,10,"[1, 6, 8]",3,True,CHO,aromatic
9009,"1-(3,5-dimethoxyphenyl)ethanone",CC(=O)C1=CC(=CC(=C1)OC)OC,563.65,10,"[1, 6, 8]",3,True,CHO,ester
9010,dec-9-ynoic acid,C#CCCCCCCCC(=O)O,564.03,10,"[1, 6, 8]",3,True,CHO,alkyne
9011,"4,7-dioxadispiro[4.0.46.25]dodeca-1,9-diene-3,8-dione",C1CC2(C13C=CC(=O)O3)C=CC(=O)O2,564.26,10,"[1, 6, 8]",3,True,CHO,ester
9012,1-(1-butoxypropan-2-yloxy)propan-2-ol,CCCCOCC(C)OCC(C)O,564.54,10,"[1, 6, 8]",3,True,CHO,ester
9013,2-[2-(2-methylpentoxy)ethoxy]ethanol,CCCC(C)COCCOCCO,564.98,10,"[1, 6, 8]",3,True,CHO,ester
9014,4-piperidin-4-ylpyridine,C1CNCCC1C2=CC=NC=C2,565.15,10,"[1, 6, 7]",3,True,CHN,aromatic
9015,diethyl 2-(2-methoxyethyl)propanedioate,CCOC(=O)C(CCOC)C(=O)OCC,566.82,10,"[1, 6, 8]",3,True,CHO,ester
9016,4-(azepan-1-yl)butanenitrile,C1CCCN(CC1)CCCC#N,567.14,10,"[1, 6, 7]",3,True,CHN,amine
9017,"6-hydroxy-2,6-dimethyloct-7-en-4-one",CC(C)CC(=O)CC(C)(C=C)O,567.46,10,"[1, 6, 8]",3,True,CHO,alkene
9018,"4-hydroxy-2,2,5,5-tetramethylhexan-3-one",CC(C)(C)C(C(=O)C(C)(C)C)O,567.55,10,"[1, 6, 8]",3,True,CHO,alcohol
9019,"methyl 2,4-dimethoxybenzoate",COC1=CC(=C(C=C1)C(=O)OC)OC,567.65,10,"[1, 6, 8]",3,True,CHO,ester
9020,(E)-3-(2-methoxyphenyl)prop-2-enal,COC1=CC=CC=C1/C=C/C=O,568.15,10,"[1, 6, 8]",3,True,CHO,ester
9021,"pentacyclo[4.3.0.02,5.03,8.04,7]nonane-4-carboxylic acid",C1C2C3C4C1C5C2C3C45C(=O)O,568.22,10,"[1, 6, 8]",3,True,CHO,alcohol
9022,2-(2-methoxyethoxy)-N-[2-(2-methoxyethoxy)ethyl]ethanamine,COCCOCCNCCOCCOC,568.25,10,"[1, 6, 7, 8]",4,True,CHON,ester
9023,ethyl 6-methyl-2-oxocyclohex-3-ene-1-carboxylate,CCOC(=O)C1C(CC=CC1=O)C,568.48,10,"[1, 6, 8]",3,True,CHO,ester
9024,"tert-butyl 1,4-diazepane-1-carboxylate",CC(C)(C)OC(=O)N1CCCNCC1,568.6,10,"[1, 6, 7, 8]",4,True,CHON,ester
9025,"3,3-bis(2-methoxyethoxy)butan-2-one",CC(=O)C(C)(OCCOC)OCCOC,568.72,10,"[1, 6, 8]",3,True,CHO,ester
9026,2-[2-(2-azabicyclo[2.2.1]heptan-2-yl)ethoxy]ethanol,C1CC2CC1CN2CCOCCO,568.92,10,"[1, 6, 7, 8]",4,True,CHON,ester
9027,(1-prop-2-ynylcyclohexyl) carbamate,C#CCC1(CCCCC1)OC(=O)N,569.06,10,"[1, 6, 7, 8]",4,True,CHON,ester
9028,(E)-6-(1-ethoxyethoxy)hex-2-en-1-ol,CCOC(C)OCCC/C=C/CO,569.14,10,"[1, 6, 8]",3,True,CHO,ester
9029,1-methoxybicyclo[2.2.2]oct-5-ene-2-carbonitrile,COC12CCC(CC1C#N)C=C2,569.65,10,"[1, 6, 7, 8]",4,True,CHON,ester
9030,3-pyridin-4-ylpyridine,C1=CC(=CN=C1)C2=CC=NC=C2,570.15,10,"[1, 6, 7]",3,True,CHN,aromatic
9031,4-propan-2-ylbenzonitrile,CC(C)C1=CC=C(C=C1)C#N,570.15,10,"[1, 6, 7]",3,True,CHN,aromatic
9032,2-(octan-2-ylamino)ethanol,CCCCCCC(C)NCCO,570.31,10,"[1, 6, 7, 8]",4,True,CHON,alcohol
9033,dec-9-enoic acid,C=CCCCCCCCC(=O)O,570.59,10,"[1, 6, 8]",3,True,CHO,alkene
9034,"7,7-dimethyloctanoic acid",CC(C)(C)CCCCCC(=O)O,570.68,10,"[1, 6, 8]",3,True,CHO,alcohol
9035,"2,2-dimethyloctanoic acid",CCCCCCC(C)(C)C(=O)O,570.68,10,"[1, 6, 8]",3,True,CHO,alcohol
9036,3-ethyl-3-methylheptanoic acid,CCCCC(C)(CC)CC(=O)O,570.68,10,"[1, 6, 8]",3,True,CHO,alcohol
9037,2-(octylamino)ethanol,CCCCCCCCNCCO,570.75,10,"[1, 6, 7, 8]",4,True,CHON,alcohol