,Name,SMILES,Tb,C Atom,Atom,Count Unique Atom,Pass Screen,Atom2,Func. Group
3505,1-[(Z)-prop-1-enyl]aziridine,C/C=C\N1CC1,337.74,5,"[1, 6, 7]",3,True,CHN,alkene
3506,1-[(E)-prop-1-enyl]aziridine,C/C=C/N1CC1,337.74,5,"[1, 6, 7]",3,True,CHN,alkene
3507,"2-methoxy-N,N-dimethylethanamine",CN(C)CCOC,339.15,5,"[1, 6, 7, 8]",4,True,CHON,ester
3508,ethyl 2-isocyanatoacetate,CCOC(=O)CN=C=O,339.65,5,"[1, 6, 7, 8]",4,True,CHON,ester
3509,1-azabicyclo[3.1.0]hexane,C1CC2CN2C1,340.32,5,"[1, 6, 7]",3,True,CHN,amine
3510,(E)-2-methoxybut-2-ene,C/C=C(\C)/OC,340.46,5,"[1, 6, 8]",3,True,CHO,ester
3511,(E)-1-methoxybut-1-ene,CC/C=C/OC,340.58,5,"[1, 6, 8]",3,True,CHO,ester
3512,ethoxycyclopropane,CCOC1CC1,341.15,5,"[1, 6, 8]",3,True,CHO,ester
3513,"1-methyl-2,5-dihydropyrrole",CN1CC=CC1,341.28,5,"[1, 6, 7]",3,True,CHN,alkene
3514,"N,2-dimethylpropan-1-amine",CC(C)CNC,341.65,5,"[1, 6, 7]",3,True,CHN,amine
3515,"3-methyl-2,3-dihydrofuran",CC1COC=C1,342.9,5,"[1, 6, 8]",3,True,CHO,ester
3516,"2,2-dimethyloxetane",CC1(CCO1)C,343.15,5,"[1, 6, 8]",3,True,CHO,ester
3517,N-ethylprop-2-ynamide,CCNC(=O)C#C,348.15,5,"[1, 6, 7, 8]",4,True,CHON,alkyne
3518,2-formyloxypropyl formate,CC(COC=O)OC=O,348.15,5,"[1, 6, 8]",3,True,CHO,ester
3519,"2,2,3-trimethyloxirane",CC1C(O1)(C)C,348.65,5,"[1, 6, 8]",3,True,CHO,ester
3520,"2-methyl-2,5-dihydrofuran",CC1C=CCO1,350.65,5,"[1, 6, 8]",3,True,CHO,ester
3521,"2,2-dimethylpropane-1,3-diamine",CC(C)(CN)CN,350.65,5,"[1, 6, 7]",3,True,CHN,amine
3522,2-ethenyl-2-methyloxirane,CC1(CO1)C=C,351.9,5,"[1, 6, 8]",3,True,CHO,ester
3523,2-propan-2-yloxirane,CC(C)C1CO1,354.15,5,"[1, 6, 8]",3,True,CHO,ester
3524,2-ethyl-3-methyloxirane,CCC1C(O1)C,354.15,5,"[1, 6, 8]",3,True,CHO,ester
3525,2-ethyl-2-methyloxirane,CCC1(CO1)C,354.15,5,"[1, 6, 8]",3,True,CHO,ester
3526,"5-methyl-2,3-dihydrofuran",CC1=CCCO1,354.65,5,"[1, 6, 8]",3,True,CHO,ester
3527,3-ethoxyprop-1-yne,CCOCC#C,355.15,5,"[1, 6, 8]",3,True,CHO,ester
3528,"2,3-dimethoxyprop-1-ene",COCC(=C)OC,355.4,5,"[1, 6, 8]",3,True,CHO,ester
3529,3-(methoxymethoxy)prop-1-ene,COCOCC=C,355.52,5,"[1, 6, 8]",3,True,CHO,ester
3530,2-methyl-3-propyloxaziridine,CCCC1N(O1)C,355.86,5,"[1, 6, 7, 8]",4,True,CHON,ester
3531,N-ethylprop-2-en-1-amine,CCNCC=C,357.15,5,"[1, 6, 7]",3,True,CHN,alkene
3532,1-ethoxyprop-1-yne,CCOC#CC,357.15,5,"[1, 6, 8]",3,True,CHO,ester
3533,pent-1-yn-3-one,CCC(=O)C#C,357.99,5,"[1, 6, 8]",3,True,CHO,alkyne
3534,pent-4-yn-2-one,CC(=O)CC#C,357.99,5,"[1, 6, 8]",3,True,CHO,alkyne
3535,1-ethoxy-1-methoxyethane,CCOC(C)OC,358.15,5,"[1, 6, 8]",3,True,CHO,ester
3536,"1,3-dimethoxypropane",COCCCOC,358.84,5,"[1, 6, 8]",3,True,CHO,ester
3537,1-ethoxy-2-methoxyethane,CCOCCOC,358.84,5,"[1, 6, 8]",3,True,CHO,ester
3538,3-methylbut-3-en-1-amine,CC(=C)CCN,359.15,5,"[1, 6, 7]",3,True,CHN,alkene
3539,(E)-3-(dimethylamino)prop-2-enenitrile,CN(C)/C=C/C#N,360.15,5,"[1, 6, 7]",3,True,CHN,alkene
3540,methyl 3-hydroxybutanoate,CC(CC(=O)OC)O,362.15,5,"[1, 6, 8]",3,True,CHO,ester
3541,2-propyloxirane,CCCC1CO1,362.65,5,"[1, 6, 8]",3,True,CHO,ester
3542,ethenyl prop-2-enoate,C=CC(=O)OC=C,364.15,5,"[1, 6, 8]",3,True,CHO,ester
3543,"4-methyl-2,3-dihydrofuran",CC1=COCC1,365.04,5,"[1, 6, 8]",3,True,CHO,ester
3544,"3-oxatricyclo[3.1.0.02,6]hexan-4-one",C12C3C1C(=O)OC23,366.42,5,"[1, 6, 8]",3,True,CHO,ester
3545,(E)-pent-2-enal,CC/C=C/C=O,366.82,5,"[1, 6, 8]",3,True,CHO,alkene
3546,2-methyloxazinane,CN1CCCCO1,367.15,5,"[1, 6, 7, 8]",4,True,CHON,ester
3547,2-(oxiran-2-ylmethyl)oxirane,C1C(O1)CC2CO2,367.15,5,"[1, 6, 8]",3,True,CHO,ester
3548,2-methylbutan-1-amine,CCC(C)CN,368.70133,5,"[1, 6, 7]",3,True,CHN,amine
3549,"5-methyl-2,3-dihydro-1H-pyrrole",CC1=CCCN1,369.15,5,"[1, 6, 7]",3,True,CHN,alkene
3550,N-[ethyl(nitroso)carbamoyl]acetamide,CCN(C(=O)NC(=O)C)N=O,370.25,5,"[1, 6, 7, 8]",4,True,CHON,amide
3551,pent-4-ynoic acid,C#CCCC(=O)O,371.15,5,"[1, 6, 8]",3,True,CHO,alkyne
3552,pent-2-ynal,CCC#CC=O,371.66,5,"[1, 6, 8]",3,True,CHO,alkyne
3553,"4,4-dimethyl-5H-1,3-oxazole",CC1(COC=N1)C,372.65,5,"[1, 6, 7, 8]",4,True,CHON,ester
3554,1-methoxybut-2-yne,CC#CCOC,372.9,5,"[1, 6, 8]",3,True,CHO,ester
3555,2-methylpyrrolidine,CC1CCCN1,373.15,5,"[1, 6, 7]",3,True,CHN,amine
3556,1-methoxy-2-methylpropan-2-amine,CC(C)(COC)N,374.15,5,"[1, 6, 7, 8]",4,True,CHON,ester
3557,N-methylbutan-2-amine,CCC(C)NC,375.65,5,"[1, 6, 7]",3,True,CHN,amine
3558,2-oxabicyclo[2.2.0]hex-5-en-3-one,C1=CC2C1C(=O)O2,376.32,5,"[1, 6, 8]",3,True,CHO,ester
3559,pent-3-yn-2-one,CC#CC(=O)C,376.87,5,"[1, 6, 8]",3,True,CHO,alkyne
3560,"N,N-dimethylprop-2-enamide",CN(C)C(=O)C=C,376.99,5,"[1, 6, 7, 8]",4,True,CHON,amide
3561,3-methylpyrrolidine,CC1CCNC1,377.83,5,"[1, 6, 7]",3,True,CHN,amine
3562,"2,5-dimethyl-4H-pyrazol-3-one",CC1=NN(C(=O)C1)C,378.15,5,"[1, 6, 7, 8]",4,True,CHON,amide
3563,4-methyloxolan-2-one,CC1CC(=O)OC1,378.96,5,"[1, 6, 8]",3,True,CHO,ester
3564,"2-ethyl-1,3-dioxolane",CCC1OCCO1,379.15,5,"[1, 6, 8]",3,True,CHO,ester
3565,(E)-pent-3-enal,C/C=C/CC=O,379.15,5,"[1, 6, 8]",3,True,CHO,alkene
3566,2-methoxyoxolane,COC1CCCO1,379.15,5,"[1, 6, 8]",3,True,CHO,ester
3567,2-methylbut-3-en-2-amine,CC(C)(C=C)N,379.98,5,"[1, 6, 7]",3,True,CHN,alkene
3568,methyl but-3-enoate,COC(=O)CC=C,380.15,5,"[1, 6, 8]",3,True,CHO,ester
3569,"1,1,2-trimethoxyethane",COCC(OC)OC,380.82,5,"[1, 6, 8]",3,True,CHO,ester
3570,methyl but-2-ynoate,CC#CC(=O)OC,381.22,5,"[1, 6, 8]",3,True,CHO,ester
3571,"2-methyl-1,3-dioxane",CC1OCCCO1,382.15,5,"[1, 6, 8]",3,True,CHO,ester
3572,"2-methyl-4-methylidene-1,3-dioxolane",CC1OCC(=C)O1,382.34,5,"[1, 6, 8]",3,True,CHO,ester
3573,5-methylideneoxolan-2-one,C=C1CCC(=O)O1,382.79,5,"[1, 6, 8]",3,True,CHO,ester
3574,pent-4-en-2-one,CC(=O)CC=C,384.65,5,"[1, 6, 8]",3,True,CHO,alkene
3575,"ethyl N,N-dimethylcarbamate",CCOC(=O)N(C)C,384.66,5,"[1, 6, 7, 8]",4,True,CHON,ester
3576,methyl 2-(dimethylamino)acetate,CN(C)CC(=O)OC,384.66,5,"[1, 6, 7, 8]",4,True,CHON,ester
3577,"1,4-dihydropyridine",C1C=CNC=C1,385.09,5,"[1, 6, 7]",3,True,CHN,alkene
3578,2-oxopentanal,CCCC(=O)C=O,385.2,5,"[1, 6, 8]",3,True,CHO,aldehyde
3579,"1-N,1-N-dimethylpropane-1,2-diamine",CC(CN(C)C)N,385.65,5,"[1, 6, 7]",3,True,CHN,amine
3580,"2,3-dioxabicyclo[2.2.1]heptane",C1CC2CC1OO2,385.65,5,"[1, 6, 8]",3,True,CHO,ester
3581,5-hydroxypent-4-yn-2-one,CC(=O)CC#CO,386.15,5,"[1, 6, 8]",3,True,CHO,alkyne
3582,"4,5-dimethylidene-1,3-dioxolane",C=C1C(=C)OCO1,386.17,5,"[1, 6, 8]",3,True,CHO,ester
3583,3-methoxybut-3-en-2-one,CC(=O)C(=C)OC,386.85,5,"[1, 6, 8]",3,True,CHO,ester
3584,"2,3-dihydropyran-6-one",C1COC(=O)C=C1,387.06,5,"[1, 6, 8]",3,True,CHO,ester
3585,"2-ethenyl-1,3-dioxolane",C=CC1OCCO1,387.15,5,"[1, 6, 8]",3,True,CHO,ester
3586,N-ethyl-N-(3-hydroxypropyl)nitrous amide,CCN(CCCO)N=O,387.15,5,"[1, 6, 7, 8]",4,True,CHON,alcohol
3587,"2,4-dimethyl-1,3-dioxole",CC1OC=C(O1)C,387.32,5,"[1, 6, 8]",3,True,CHO,ester
3588,"(1E)-penta-1,4-dien-1-amine",C=CC/C=C/N,387.37,5,"[1, 6, 7]",3,True,CHN,alkene
3589,5-methyl-3H-furan-2-one,CC1=CCC(=O)O1,387.77,5,"[1, 6, 8]",3,True,CHO,ester
3590,4-methyl-2H-furan-5-one,CC1=CCOC1=O,387.77,5,"[1, 6, 8]",3,True,CHO,ester
3591,2-ethoxy-N-methylethanamine,CCOCCNC,388.15,5,"[1, 6, 7, 8]",4,True,CHON,ester
3592,1-methoxy-2-methylpropan-2-ol,CC(C)(COC)O,389.75,5,"[1, 6, 8]",3,True,CHO,ester
3593,cyclobutanecarbaldehyde,C1CC(C1)C=O,390.15,5,"[1, 6, 8]",3,True,CHO,aldehyde
3594,4-methoxybutan-2-one,CC(=O)CCOC,390.29,5,"[1, 6, 8]",3,True,CHO,ester
3595,"2,4-dimethyl-1,3-dioxolane",CC1COC(O1)C,390.65,5,"[1, 6, 8]",3,True,CHO,ester
3596,1-ethenylimidazole,C=CN1C=CN=C1,390.82,5,"[1, 6, 7]",3,True,CHN,alkene
3597,4-[cyano(nitroso)amino]-3-hydroxybutanamide,C(C(CN(C#N)N=O)O)C(=O)N,391.05,5,"[1, 6, 7, 8]",4,True,CHON,alcohol
3598,(E)-pent-3-en-2-ol,C/C=C/C(C)O,391.65,5,"[1, 6, 8]",3,True,CHO,alkene
3599,ethyl aziridine-1-carboxylate,CCOC(=O)N1CC1,391.8,5,"[1, 6, 7, 8]",4,True,CHON,ester
3600,methyl 2-(aziridin-1-yl)acetate,COC(=O)CN1CC1,391.8,5,"[1, 6, 7, 8]",4,True,CHON,ester
3601,1-nitrosopiperidin-4-one,C1CN(CCC1=O)N=O,392.15,5,"[1, 6, 7, 8]",4,True,CHON,ketone
3602,1-cyclopropylethanamine,CC(C1CC1)N,392.83,5,"[1, 6, 7]",3,True,CHN,amine
3603,2-methylbut-3-en-1-ol,CC(CO)C=C,393.65,5,"[1, 6, 8]",3,True,CHO,alkene
3604,(Z)-2-methylbut-2-enenitrile,C/C=C(/C)\C#N,394.65,5,"[1, 6, 7]",3,True,CHN,alkene
3605,"1,3-dioxepine",C1OC=CC=CO1,394.71,5,"[1, 6, 8]",3,True,CHO,ester
3606,2-methylbut-2-enenitrile,CC=C(C)C#N,395.15,5,"[1, 6, 7]",3,True,CHN,alkene
3607,"4-ethyl-1,3-oxazolidin-2-one",CCC1COC(=O)N1,395.65,5,"[1, 6, 7, 8]",4,True,CHON,ester
3608,4-methylmorpholin-2-one,CN1CCOC(=O)C1,396.07,5,"[1, 6, 7, 8]",4,True,CHON,ester
3609,"6-methyl-4H-1,3-dioxine",CC1=CCOCO1,396.26,5,"[1, 6, 8]",3,True,CHO,ester
3610,3-methylbut-3-enyl nitrite,CC(=C)CCON=O,396.38,5,"[1, 6, 7, 8]",4,True,CHON,alkene
3611,dioxepane,C1CCOOCC1,396.39,5,"[1, 6, 8]",3,True,CHO,ester
3612,pent-4-enyl nitrite,C=CCCCON=O,396.5,5,"[1, 6, 7, 8]",4,True,CHON,alkene
3613,2-methylbutan-2-yl nitrite,CCC(C)(C)ON=O,396.59,5,"[1, 6, 7, 8]",4,True,CHON,ester
3614,N-butylformamide,CCCCNC=O,398.15,5,"[1, 6, 7, 8]",4,True,CHON,amide
3615,"2-N,2-N-dimethylpropane-1,2-diamine",CC(CN)N(C)C,398.53,5,"[1, 6, 7]",3,True,CHN,amine
3616,"1-N',1-N'-dimethylpropane-1,1-diamine",CCC(N)N(C)C,398.53,5,"[1, 6, 7]",3,True,CHN,amine
3617,2-methylbut-3-enenitrile,CC(C=C)C#N,399.15,5,"[1, 6, 7]",3,True,CHN,alkene
3618,"2-methylbutane-1,4-diol",CC(CCO)CO,399.65,5,"[1, 6, 8]",3,True,CHO,alcohol
3619,"N,N-dimethylaziridine-1-carboxamide",CN(C)C(=O)N1CC1,399.89,5,"[1, 6, 7, 8]",4,True,CHON,amide
3620,"cyclopenta-2,4-dien-1-one",C1=CC(=O)C=C1,400.09,5,"[1, 6, 8]",3,True,CHO,alkene
3621,(Z)-pent-2-enenitrile,CC/C=C\C#N,400.45,5,"[1, 6, 7]",3,True,CHN,alkene
3622,(E)-pent-2-en-4-yn-1-ol,C#C/C=C/CO,400.46,5,"[1, 6, 8]",3,True,CHO,alkene
3623,(E)-3-(oxiran-2-yl)prop-2-enal,C1C(O1)/C=C/C=O,400.51,5,"[1, 6, 8]",3,True,CHO,ester
3624,pent-4-yn-2-ol,CC(CC#C)O,401.15,5,"[1, 6, 8]",3,True,CHO,alkyne
3625,3-methoxybutanal,CC(CC=O)OC,401.15,5,"[1, 6, 8]",3,True,CHO,ester
3626,pent-1-en-4-yn-3-ol,C=CC(C#C)O,402.15,5,"[1, 6, 8]",3,True,CHO,alkene
3627,methyl 2-methoxypropanoate,CC(C(=O)OC)OC,402.65,5,"[1, 6, 8]",3,True,CHO,ester
3628,"N'-ethyl-N,N-dimethylmethanimidamide",CCN=CN(C)C,403.12,5,"[1, 6, 7]",3,True,CHN,amine
3629,oxolane-3-carbaldehyde,C1COCC1C=O,404.89,5,"[1, 6, 8]",3,True,CHO,ester
3630,"4,5-dimethyl-1,3-oxazole",CC1=C(OC=N1)C,405.15,5,"[1, 6, 7, 8]",4,True,CHON,aromatic
3631,methyl 2-methyloxirane-2-carboxylate,CC1(CO1)C(=O)OC,406.15,5,"[1, 6, 8]",3,True,CHO,ester
3632,pent-4-ynenitrile,C#CCCC#N,406.2,5,"[1, 6, 7]",3,True,CHN,alkyne
3633,3-methylcyclobutan-1-ol,CC1CC(C1)O,406.65,5,"[1, 6, 8]",3,True,CHO,alcohol
3634,"(2E)-penta-2,4-dien-1-ol",C=C/C=C/CO,407.02,5,"[1, 6, 8]",3,True,CHO,alkene
3635,bis(aziridin-1-yl)methanone,C1CN1C(=O)N2CC2,407.03,5,"[1, 6, 7, 8]",4,True,CHON,amide
3636,"3,3-dimethoxypropanal",COC(CC=O)OC,407.06,5,"[1, 6, 8]",3,True,CHO,ester
3637,cyclopent-3-en-1-one,C1C=CCC1=O,407.15,5,"[1, 6, 8]",3,True,CHO,alkene
3638,1-methoxybutan-2-ol,CCC(COC)O,407.15,5,"[1, 6, 8]",3,True,CHO,ester
3639,"2,2-dimethylpropanedial",CC(C)(C=O)C=O,408.09,5,"[1, 6, 8]",3,True,CHO,aldehyde
3640,2-cyclopropylethanol,C1CC1CCO,408.15,5,"[1, 6, 8]",3,True,CHO,alcohol
3641,3-ethoxypropan-1-amine,CCOCCCN,408.15,5,"[1, 6, 7, 8]",4,True,CHON,ester
3642,4-(oxiran-2-yl)oxetan-2-one,C1C(OC1=O)C2CO2,408.38,5,"[1, 6, 8]",3,True,CHO,ester
3643,1-methoxybutan-2-amine,CCC(COC)N,408.51,5,"[1, 6, 7, 8]",4,True,CHON,ester
3644,"1-nitroso-3,4-dihydro-2H-pyridine",C1CC=CN(C1)N=O,408.95,5,"[1, 6, 7, 8]",4,True,CHON,alkene
3645,2-ethoxypropanenitrile,CCOC(C)C#N,409.15,5,"[1, 6, 7, 8]",4,True,CHON,ester
3646,3-methylbut-3-enenitrile,CC(=C)CC#N,409.45,5,"[1, 6, 7]",3,True,CHN,alkene
3647,(E)-pent-3-en-1-ol,C/C=C/CCO,409.65,5,"[1, 6, 8]",3,True,CHO,alkene
3648,"N'-propan-2-ylethane-1,2-diamine",CC(C)NCCN,409.65,5,"[1, 6, 7]",3,True,CHN,amine
3649,1-methylpyrrolidin-3-one,CN1CCC(=O)C1,409.94,5,"[1, 6, 7, 8]",4,True,CHON,ketone
3650,3-methylbut-2-en-2-ol,CC(=C(C)O)C,410.1,5,"[1, 6, 8]",3,True,CHO,alkene
3651,(E)-2-methylbut-2-en-1-ol,C/C=C(\C)/CO,410.15,5,"[1, 6, 8]",3,True,CHO,alkene
3652,3-methoxy-2H-furan-5-one,COC1=CC(=O)OC1,410.19,5,"[1, 6, 8]",3,True,CHO,ester
3653,(E)-2-methylbut-2-enenitrile,C/C=C(\C)/C#N,411.35,5,"[1, 6, 7]",3,True,CHN,alkene
3654,2-(ethenoxymethyl)oxirane,C=COCC1CO1,411.65,5,"[1, 6, 8]",3,True,CHO,ester
3655,N-ethyl-N-(1-methoxyethyl)nitrous amide,CCN(C(C)OC)N=O,411.82,5,"[1, 6, 7, 8]",4,True,CHON,ester
3656,pent-4-en-2-yn-1-ol,C=CC#CCO,411.86,5,"[1, 6, 8]",3,True,CHO,alkene
3657,(2-methylidenecyclopropyl)methanol,C=C1CC1CO,412.08,5,"[1, 6, 8]",3,True,CHO,alkene
3658,2-methyloxolan-3-one,CC1C(=O)CCO1,412.15,5,"[1, 6, 8]",3,True,CHO,ester
3659,1-ethylpyrazole,CCN1C=CC=N1,412.15,5,"[1, 6, 7]",3,True,CHN,aromatic
3660,N-methoxybutan-1-imine,CCCC=NOC,413.1,5,"[1, 6, 7, 8]",4,True,CHON,ester
3661,cyclopent-2-en-1-ol,C1CC(C=C1)O,413.15,5,"[1, 6, 8]",3,True,CHO,alkene
3662,(Z)-pent-3-en-1-ol,C/C=C\CCO,413.65,5,"[1, 6, 8]",3,True,CHO,alkene
3663,"5-methoxy-3,4-dihydro-2H-pyrrole",COC1=NCCC1,414.21,5,"[1, 6, 7, 8]",4,True,CHON,ester
3664,pent-3-yn-2-ol,CC#CC(C)O,414.74,5,"[1, 6, 8]",3,True,CHO,alkyne
3665,"penta-2,4-diynenitrile",C#CC#CC#N,415.2,5,"[1, 6, 7]",3,True,CHN,alkyne
3666,cyclobutylmethanol,C1CC(C1)CO,415.4,5,"[1, 6, 8]",3,True,CHO,alcohol
3667,"N'-(dimethylamino)-N,N-dimethylmethanimidamide",CN(C)C=NN(C)C,415.56,5,"[1, 6, 7]",3,True,CHN,amine
3668,"N,N-dimethyl-1,3-dioxolan-2-amine",CN(C)C1OCCO1,416.15,5,"[1, 6, 7, 8]",4,True,CHON,ester
3669,4-oxopentanal,CC(=O)CCC=O,416.53,5,"[1, 6, 8]",3,True,CHO,aldehyde
3670,"6,7,8-trioxabicyclo[3.2.1]octane",C1CC2OC(C1)OO2,416.87,5,"[1, 6, 8]",3,True,CHO,ester
3671,1-methylcyclobutan-1-ol,CC1(CCC1)O,417.43,5,"[1, 6, 8]",3,True,CHO,alcohol
3672,"N,2-dimethylpropanamide",CC(C)C(=O)NC,417.6,5,"[1, 6, 7, 8]",4,True,CHON,amide
3673,"3,4-dimethyl-1,2-oxazole",CC1=CON=C1C,417.65,5,"[1, 6, 7, 8]",4,True,CHON,aromatic
3674,(E)-pent-2-enenitrile,CC/C=C/C#N,417.85,5,"[1, 6, 7]",3,True,CHN,alkene
3675,1-methyl-4-nitrosopiperazine,CN1CCN(CC1)N=O,417.96,5,"[1, 6, 7, 8]",4,True,CHON,amine
3676,N-ethylpropanamide,CCC(=O)NCC,418.04,5,"[1, 6, 7, 8]",4,True,CHON,amide
3677,N-methylbutanamide,CCCC(=O)NC,418.04,5,"[1, 6, 7, 8]",4,True,CHON,amide
3678,"N,N'-dimethylpropane-1,3-diamine",CNCCCNC,418.15,5,"[1, 6, 7]",3,True,CHN,amine
3679,(E)-pent-3-enenitrile,C/C=C/CC#N,418.5,5,"[1, 6, 7]",3,True,CHN,alkene
3680,diethylaminomethanol,CCN(CC)CO,418.62,5,"[1, 6, 7, 8]",4,True,CHON,alcohol
3681,methyl 2-ethoxyacetate,CCOCC(=O)OC,419.15,5,"[1, 6, 8]",3,True,CHO,ester
3682,2-methoxybutan-1-ol,CCC(CO)OC,419.65,5,"[1, 6, 8]",3,True,CHO,ester
3683,4-methoxybutanoic acid,COCCCC(=O)O,419.65,5,"[1, 6, 8]",3,True,CHO,carboxylic_acid
3684,"cyclopenta-2,4-dien-1-ol",C1=CC(C=C1)O,419.78,5,"[1, 6, 8]",3,True,CHO,alkene
3685,1-oxopropan-2-yl acetate,CC(C=O)OC(=O)C,420.44,5,"[1, 6, 8]",3,True,CHO,ester
3686,methyl 2-methyl-3-oxopropanoate,CC(C=O)C(=O)OC,420.44,5,"[1, 6, 8]",3,True,CHO,ester
3687,3-hydroxypentan-2-one,CCC(C(=O)C)O,420.65,5,"[1, 6, 8]",3,True,CHO,alcohol
3688,(E)-4-oxopent-2-enal,CC(=O)/C=C/C=O,420.69,5,"[1, 6, 8]",3,True,CHO,aldehyde
3689,methyl 4-oxobutanoate,COC(=O)CCC=O,420.88,5,"[1, 6, 8]",3,True,CHO,ester
3690,1-methylcycloprop-2-ene-1-carbonitrile,CC1(C=C1)C#N,422.22,5,"[1, 6, 7]",3,True,CHN,alkene
3691,"4,5-dimethyl-1,3-oxazolidin-2-one",CC1C(OC(=O)N1)C,422.84,5,"[1, 6, 7, 8]",4,True,CHON,ester
3692,"1,5-dimethylpyrazole",CC1=CC=NN1C,423.15,5,"[1, 6, 7]",3,True,CHN,aromatic
3693,"4,5-dimethyl-1,2-oxazole",CC1=C(ON=C1)C,423.25,5,"[1, 6, 7, 8]",4,True,CHON,aromatic
3694,5-methyloxolan-3-one,CC1CC(=O)CO1,424.05,5,"[1, 6, 8]",3,True,CHO,ester
3695,furan-3-carbonitrile,C1=COC=C1C#N,424.15,5,"[1, 6, 7, 8]",4,True,CHON,aromatic
3696,1-hydroxypentan-2-one,CCCC(=O)CO,425.15,5,"[1, 6, 8]",3,True,CHO,alcohol
3697,2-hydroperoxy-2-methylbutane,CCC(C)(C)OO,425.37,5,"[1, 6, 8]",3,True,CHO,ester
3698,2-hydroxypentan-3-one,CCC(=O)C(C)O,425.65,5,"[1, 6, 8]",3,True,CHO,alcohol
3699,ethyl N-methoxy-N-methylcarbamate,CCOC(=O)N(C)OC,425.65,5,"[1, 6, 7, 8]",4,True,CHON,ester
3700,1-(2-methylpropyl)-1-nitrosourea,CC(C)CN(C(=O)N)N=O,426.95,5,"[1, 6, 7, 8]",4,True,CHON,amide
3701,"1,3,6-trioxocane",C1COCOCCO1,427.61,5,"[1, 6, 8]",3,True,CHO,ester
3702,"5,5-dimethyl-1,3-oxazolidin-2-one",CC1(CNC(=O)O1)C,427.75,5,"[1, 6, 7, 8]",4,True,CHON,ester
3703,"4,4-dimethyl-1,3-oxazolidin-2-one",CC1(COC(=O)N1)C,427.75,5,"[1, 6, 7, 8]",4,True,CHON,ester
3704,3-methyl-3-nitrosobutan-2-one,CC(=O)C(C)(C)N=O,428.04,5,"[1, 6, 7, 8]",4,True,CHON,ketone
3705,2-methylpropoxymethanol,CC(C)COCO,428.16,5,"[1, 6, 8]",3,True,CHO,ester
3706,2-hydroperoxypentane,CCCC(C)OO,428.16,5,"[1, 6, 8]",3,True,CHO,ester
3707,3-hydroperoxypentane,CCC(CC)OO,428.16,5,"[1, 6, 8]",3,True,CHO,ester
3708,1-hydroperoxypentane,CCCCCOO,428.6,5,"[1, 6, 8]",3,True,CHO,ester
3709,4-methoxybutan-1-ol,COCCCCO,428.6,5,"[1, 6, 8]",3,True,CHO,ester
3710,"N'-ethylpropane-1,3-diamine",CCNCCCN,429.15,5,"[1, 6, 7]",3,True,CHN,amine
3711,"cyclopenta-1,3-dien-1-ol",C1C=CC=C1O,429.43,5,"[1, 6, 8]",3,True,CHO,alkene
3712,"cyclopenta-1,4-dien-1-ol",C1C=CC(=C1)O,429.43,5,"[1, 6, 8]",3,True,CHO,alkene
3713,3-nitroso-7-oxa-3-azabicyclo[4.1.0]heptane,C1CN(CC2C1O2)N=O,430.27,5,"[1, 6, 7, 8]",4,True,CHON,ester
3714,2-(2-methoxyethoxy)ethanamine,COCCOCCN,431.37,5,"[1, 6, 7, 8]",4,True,CHON,ester
3715,3-methyl-4-nitrosomorpholine,CC1COCCN1N=O,432.07,5,"[1, 6, 7, 8]",4,True,CHON,ester
3716,methyl 2-methyl-2-nitrosopropanoate,CC(C)(C(=O)OC)N=O,432.39,5,"[1, 6, 7, 8]",4,True,CHON,ester
3717,furan-2-carbohydrazide,C1=COC(=C1)C(=O)NN,432.4,5,"[1, 6, 7, 8]",4,True,CHON,aromatic
3718,methyl 2-[formyl(methyl)amino]acetate,CN(CC(=O)OC)C=O,433.32,5,"[1, 6, 7, 8]",4,True,CHON,ester
3719,"methyl 2,2-dimethoxyacetate",COC(C(=O)OC)OC,434.65,5,"[1, 6, 8]",3,True,CHO,ester
3720,2-hydroxypropyl acetate,CC(COC(=O)C)O,435.15,5,"[1, 6, 8]",3,True,CHO,ester
3721,2-methoxy-2-methylpropanenitrile,CC(C)(C#N)OC,435.27,5,"[1, 6, 7, 8]",4,True,CHON,ester
3722,ethyl N-methoxyethanimidate,CCOC(=NOC)C,435.4,5,"[1, 6, 7, 8]",4,True,CHON,ester
3723,3-(aziridin-1-yl)propanenitrile,C1CN1CCC#N,435.66,5,"[1, 6, 7]",3,True,CHN,amine
3724,"2-ethenyl-4,5-dihydro-1H-imidazole",C=CC1=NCCN1,437.02,5,"[1, 6, 7]",3,True,CHN,alkene
3725,N-(methoxymethyl)prop-2-enamide,COCNC(=O)C=C,437.14,5,"[1, 6, 7, 8]",4,True,CHON,ester
3726,"pentane-1,3-diamine",CCC(CCN)N,437.15,5,"[1, 6, 7]",3,True,CHN,amine
3727,N-ethenyl-N-methylacetamide,CC(=O)N(C)C=C,439.65,5,"[1, 6, 7, 8]",4,True,CHON,amide
3728,2-methylcyclopropane-1-carbohydrazide,CC1CC1C(=O)NN,440.4,5,"[1, 6, 7, 8]",4,True,CHON,amide
3729,tert-butyl carbamate,CC(C)(C)OC(=O)N,441.52,5,"[1, 6, 7, 8]",4,True,CHON,ester
3730,methyl (E)-3-methoxyprop-2-enoate,CO/C=C/C(=O)OC,442.15,5,"[1, 6, 8]",3,True,CHO,ester
3731,(Z)-4-aminopent-3-en-2-one,C/C(=C/C(=O)C)/N,443.1,5,"[1, 6, 7, 8]",4,True,CHON,ketone
3732,acetyloxymethyl acetate,CC(=O)OCOC(=O)C,443.15,5,"[1, 6, 8]",3,True,CHO,ester
3733,piperazine-1-carbaldehyde,C1CN(CCN1)C=O,443.6,5,"[1, 6, 7, 8]",4,True,CHON,amide
3734,propyl 2-hydroxyacetate,CCCOC(=O)CO,443.65,5,"[1, 6, 8]",3,True,CHO,ester
3735,N-nitroso-N-propylacetamide,CCCN(C(=O)C)N=O,443.71,5,"[1, 6, 7, 8]",4,True,CHON,amide
3736,2-aminopentan-3-ol,CCC(C(C)N)O,444.15,5,"[1, 6, 7, 8]",4,True,CHON,alcohol
3737,pyrrolidine-1-carbonitrile,C1CCN(C1)C#N,444.2,5,"[1, 6, 7]",3,True,CHN,amine
3738,(3-methyloxetan-3-yl)methanol,CC1(COC1)CO,444.38,5,"[1, 6, 8]",3,True,CHO,ester
3739,3-methylbut-2-enamide,CC(=CC(=O)N)C,444.44,5,"[1, 6, 7, 8]",4,True,CHON,alkene
3740,(E)-pent-2-enamide,CC/C=C/C(=O)N,444.56,5,"[1, 6, 7, 8]",4,True,CHON,alkene
3741,3-(ethylamino)propanenitrile,CCNCCC#N,444.65,5,"[1, 6, 7]",3,True,CHN,amine
3742,methyl 4-aminobutanoate,COC(=O)CCCN,444.75,5,"[1, 6, 7, 8]",4,True,CHON,ester
3743,1-cyanoethyl acetate,CC(C#N)OC(=O)C,445.65,5,"[1, 6, 7, 8]",4,True,CHON,ester
3744,"3-acetyl-1,3-oxazolidin-2-one",CC(=O)N1CCOC1=O,445.67,5,"[1, 6, 7, 8]",4,True,CHON,ester