,Name,SMILES,Tb,C Atom,Atom,Count Unique Atom,Pass Screen,Atom2,Func. Group
8439,"2,6-dimethyloct-5-enal",CCC(=CCCC(C)C=O)C,480.66,10,"[1, 6, 8]",3,True,CHO,alkene
8440,4-methylidene-1-propan-2-ylbicyclo[3.1.0]hexan-3-ol,CC(C)C12CC1C(=C)C(C2)O,481.15,10,"[1, 6, 8]",3,True,CHO,alkene
8441,(Z)-dec-4-enal,CCCCC/C=C\CCC=O,481.22,10,"[1, 6, 8]",3,True,CHO,alkene
8442,2-(2-methylhexan-2-yloxymethyl)oxirane,CCCCC(C)(C)OCC1CO1,481.28,10,"[1, 6, 8]",3,True,CHO,ester
8443,cyclopentyloxycyclopentane,C1CCC(C1)OC2CCCC2,481.38,10,"[1, 6, 8]",3,True,CHO,ester
8444,"2,7-diazatricyclo[6.2.2.02,7]dodec-4-ene",C1CC2CCC1N3N2CC=CC3,481.6,10,"[1, 6, 7]",3,True,CHN,alkene
8445,1-(2-piperazin-1-ylethyl)piperazine,C1CN(CCN1)CCN2CCNCC2,481.65,10,"[1, 6, 7]",3,True,CHN,amine
8446,2-propylhept-2-enal,CCCCC=C(CCC)C=O,481.65,10,"[1, 6, 8]",3,True,CHO,alkene
8447,"2,6,6-trimethylcycloheptan-1-one",CC1CCCC(CC1=O)(C)C,481.65,10,"[1, 6, 8]",3,True,CHO,ketone
8448,3-ethyloctan-4-one,CCCCC(=O)C(CC)CC,481.83,10,"[1, 6, 8]",3,True,CHO,ketone
8449,3-methylnonan-4-one,CCCCCC(=O)C(C)CC,481.83,10,"[1, 6, 8]",3,True,CHO,ketone
8450,4-methylnonan-5-one,CCCCC(=O)C(C)CCC,481.83,10,"[1, 6, 8]",3,True,CHO,ketone
8451,"2,2,6-trimethyl-1-oxaspiro[2.5]oct-5-ene",CC1=CCC2(CC1)C(O2)(C)C,481.99,10,"[1, 6, 8]",3,True,CHO,ester
8452,"1-N,1-N,1-N',1-N',2-N,2-N,2-N',2-N'-octamethylethene-1,1,2,2-tetramine",CN(C)C(=C(N(C)C)N(C)C)N(C)C,482.08,10,"[1, 6, 7]",3,True,CHN,alkene
8453,1-phenyl-N-propylmethanimine,CCCN=CC1=CC=CC=C1,482.15,10,"[1, 6, 7]",3,True,CHN,aromatic
8454,4-methyl-1-propan-2-ylbicyclo[3.1.0]hexan-3-ol,CC1C2CC2(CC1O)C(C)C,482.15,10,"[1, 6, 8]",3,True,CHO,alcohol
8455,"1,5-diazatricyclo[4.2.2.22,5]dodecane",C1CN2CCC1N3CCC2CC3,482.44,10,"[1, 6, 7]",3,True,CHN,amine
8456,"(5E)-2,6-dimethylocta-5,7-dien-4-one",CC(C)CC(=O)/C=C(\C)/C=C,482.55,10,"[1, 6, 8]",3,True,CHO,alkene
8457,"2,6-dimethylocta-5,7-dien-4-one",CC(C)CC(=O)C=C(C)C=C,482.55,10,"[1, 6, 8]",3,True,CHO,alkene
8458,3-(cyclohexen-1-yl)butan-2-one,CC(C1=CCCCC1)C(=O)C,482.65,10,"[1, 6, 8]",3,True,CHO,alkene
8459,2-ethylbutyl 2-methylprop-2-enoate,CCC(CC)COC(=O)C(=C)C,482.74,10,"[1, 6, 8]",3,True,CHO,ester
8460,4-methylpentyl 2-methylprop-2-enoate,CC(C)CCCOC(=O)C(=C)C,482.74,10,"[1, 6, 8]",3,True,CHO,ester
8461,3-methylbut-3-enyl 3-methylbutanoate,CC(C)CC(=O)OCCC(=C)C,482.74,10,"[1, 6, 8]",3,True,CHO,ester
8462,3-methylbutyl 2-methylidenebutanoate,CCC(=C)C(=O)OCCC(C)C,482.74,10,"[1, 6, 8]",3,True,CHO,ester
8463,oct-1-en-3-yl acetate,CCCCCC(C=C)OC(=O)C,482.86,10,"[1, 6, 8]",3,True,CHO,ester
8464,3-methylbutyl pent-4-enoate,CC(C)CCOC(=O)CCC=C,482.86,10,"[1, 6, 8]",3,True,CHO,ester
8465,"2,2-dimethylpropyl 3-methylbutanoate",CC(C)CC(=O)OCC(C)(C)C,482.95,10,"[1, 6, 8]",3,True,CHO,ester
8466,"4-methyl-2-(2-methylprop-1-enyl)-3,6-dihydro-2H-pyran",CC1=CCOC(C1)C=C(C)C,483.08,10,"[1, 6, 8]",3,True,CHO,ester
8467,5-methyl-2-propan-2-ylcyclohexan-1-one,CC1CCC(C(=O)C1)C(C)C,483.15,10,"[1, 6, 8]",3,True,CHO,ketone
8468,1-cyclopentylpiperidine,C1CCN(CC1)C2CCCC2,483.15,10,"[1, 6, 7]",3,True,CHN,amine
8469,heptyl prop-2-enoate,CCCCCCCOC(=O)C=C,483.3,10,"[1, 6, 8]",3,True,CHO,ester
8470,methyl non-8-enoate,COC(=O)CCCCCCC=C,483.3,10,"[1, 6, 8]",3,True,CHO,ester
8471,"pentyl 2,2-dimethylpropanoate",CCCCCOC(=O)C(C)(C)C,483.39,10,"[1, 6, 8]",3,True,CHO,ester
8472,tert-butyl hexanoate,CCCCCC(=O)OC(C)(C)C,483.39,10,"[1, 6, 8]",3,True,CHO,ester
8473,1-methyl-4-propoxybenzene,CCCOC1=CC=C(C=C1)C,483.55,10,"[1, 6, 8]",3,True,CHO,ester
8474,3-phenylbutan-2-one,CC(C1=CC=CC=C1)C(=O)C,484.15,10,"[1, 6, 8]",3,True,CHO,aromatic
8475,decan-5-one,CCCCCC(=O)CCCC,484.15,10,"[1, 6, 8]",3,True,CHO,ketone
8476,5-methyl-2-propan-2-ylhexan-1-ol,CC(C)CCC(CO)C(C)C,484.15,10,"[1, 6, 8]",3,True,CHO,alcohol
8477,(2R)-2-phenylbutan-2-ol,CC[C@](C)(C1=CC=CC=C1)O,484.15,10,"[1, 6, 8]",3,True,CHO,aromatic
8478,"3,3-dimethyl-4-pentan-2-yloxetan-2-one",CCCC(C)C1C(C(=O)O1)(C)C,484.22,10,"[1, 6, 8]",3,True,CHO,ester
8479,"ethyl 2,2,3,3-tetramethylcyclopropane-1-carboxylate",CCOC(=O)C1C(C1(C)C)(C)C,484.5,10,"[1, 6, 8]",3,True,CHO,ester
8480,1-(cyclohexen-1-yl)pyrrolidine,C1CCC(=CC1)N2CCCC2,484.88,10,"[1, 6, 7]",3,True,CHN,alkene
8481,1-(cyclopenten-1-yl)piperidine,C1CCN(CC1)C2=CCCC2,484.88,10,"[1, 6, 7]",3,True,CHN,alkene
8482,"(2Z)-3,7-dimethylocta-2,6-dienal",CC(=CCC/C(=C\C=O)/C)C,485.14,10,"[1, 6, 8]",3,True,CHO,alkene
8483,2-oct-7-enyloxirane,C=CCCCCCCC1CO1,485.15,10,"[1, 6, 8]",3,True,CHO,ester
8484,"3,4-ditert-butyl-1,3,4-oxadiazolidine",CC(C)(C)N1COCN1C(C)(C)C,485.18,10,"[1, 6, 7, 8]",4,True,CHON,ester
8485,3-methylbutan-2-yl 2-methylbutanoate,CCC(C)C(=O)OC(C)C(C)C,485.3,10,"[1, 6, 8]",3,True,CHO,ester
8486,"(2E,4Z)-deca-2,4-dienal",CCCCC/C=C\C=C\C=O,485.38,10,"[1, 6, 8]",3,True,CHO,alkene
8487,1-methoxy-2-propan-2-yloxybenzene,CC(C)OC1=CC=CC=C1OC,485.65,10,"[1, 6, 8]",3,True,CHO,ester
8488,1-methyl-3-prop-2-enoxybenzene,CC1=CC(=CC=C1)OCC=C,485.65,10,"[1, 6, 8]",3,True,CHO,ester
8489,"6,6-dimethylbicyclo[3.1.1]heptane-2-carbaldehyde",CC1(C2CCC(C1C2)C=O)C,485.71,10,"[1, 6, 8]",3,True,CHO,aldehyde
8490,2-methylbutyl 3-methylbutanoate,CCC(C)COC(=O)CC(C)C,485.74,10,"[1, 6, 8]",3,True,CHO,ester
8491,2-methylpropyl 2-methylpentanoate,CCCC(C)C(=O)OCC(C)C,485.74,10,"[1, 6, 8]",3,True,CHO,ester
8492,3-methylbutyl 2-methylbutanoate,CCC(C)C(=O)OCCC(C)C,485.74,10,"[1, 6, 8]",3,True,CHO,ester
8493,pentan-2-yl 2-methylbutanoate,CCCC(C)OC(=O)C(C)CC,485.74,10,"[1, 6, 8]",3,True,CHO,ester
8494,2-methylpropyl 2-ethylbutanoate,CCC(CC)C(=O)OCC(C)C,485.74,10,"[1, 6, 8]",3,True,CHO,ester
8495,"3,4-dimethylhexyl acetate",CCC(C)C(C)CCOC(=O)C,485.74,10,"[1, 6, 8]",3,True,CHO,ester
8496,"2,6,6-trimethylbicyclo[3.1.1]heptan-3-one",CC1C2CC(C2(C)C)CC1=O,486.15,10,"[1, 6, 8]",3,True,CHO,ketone
8497,ethyl 3-isocyanatobenzoate,CCOC(=O)C1=CC(=CC=C1)N=C=O,486.15,10,"[1, 6, 7, 8]",4,True,CHON,ester
8498,octan-2-yl acetate,CCCCCCC(C)OC(=O)C,486.18,10,"[1, 6, 8]",3,True,CHO,ester
8499,ethyl 2-ethylhexanoate,CCCCC(CC)C(=O)OCC,486.18,10,"[1, 6, 8]",3,True,CHO,ester
8500,octan-3-yl acetate,CCCCCC(CC)OC(=O)C,486.18,10,"[1, 6, 8]",3,True,CHO,ester
8501,butyl 2-ethylbutanoate,CCCCOC(=O)C(CC)CC,486.18,10,"[1, 6, 8]",3,True,CHO,ester
8502,octan-4-yl acetate,CCCCC(CCC)OC(=O)C,486.18,10,"[1, 6, 8]",3,True,CHO,ester
8503,butyl 2-methylpentanoate,CCCCOC(=O)C(C)CCC,486.18,10,"[1, 6, 8]",3,True,CHO,ester
8504,methyl 4-methyloctanoate,CCCCC(C)CCC(=O)OC,486.18,10,"[1, 6, 8]",3,True,CHO,ester
8505,pentyl 3-methylbutanoate,CCCCCOC(=O)CC(C)C,486.18,10,"[1, 6, 8]",3,True,CHO,ester
8506,6-methylheptyl acetate,CC(C)CCCCCOC(=O)C,486.18,10,"[1, 6, 8]",3,True,CHO,ester
8507,propan-2-yl heptanoate,CCCCCCC(=O)OC(C)C,486.18,10,"[1, 6, 8]",3,True,CHO,ester
8508,2-methylbutyl pentanoate,CCCCC(=O)OCC(C)CC,486.18,10,"[1, 6, 8]",3,True,CHO,ester
8509,pentyl 2-methylbutanoate,CCCCCOC(=O)C(C)CC,486.18,10,"[1, 6, 8]",3,True,CHO,ester
8510,(E)-dec-3-en-2-one,CCCCCC/C=C/C(=O)C,486.43,10,"[1, 6, 8]",3,True,CHO,alkene
8511,1-methoxy-4-propan-2-ylbenzene,CC(C)C1=CC=C(C=C1)OC,486.65,10,"[1, 6, 8]",3,True,CHO,ester
8512,"2,2-dimethoxy-1-methylbicyclo[2.2.1]heptane",CC12CCC(C1)CC2(OC)OC,486.8,10,"[1, 6, 8]",3,True,CHO,ester
8513,"4,4,7,7-tetramethyl-3-oxabicyclo[4.1.0]heptan-2-one",CC1(CC2C(C2(C)C)C(=O)O1)C,486.97,10,"[1, 6, 8]",3,True,CHO,ester
8514,2-methyl-1-phenylpropan-1-amine,CC(C)C(C1=CC=CC=C1)N,487.15,10,"[1, 6, 7]",3,True,CHN,aromatic
8515,1-cyclohexylpyrrolidine,C1CCC(CC1)N2CCCC2,487.15,10,"[1, 6, 7]",3,True,CHN,amine
8516,"7-hydroxy-3,4-dihydro-2H-naphthalen-1-one",C1CC2=C(C=C(C=C2)O)C(=O)C1,487.15,10,"[1, 6, 8]",3,True,CHO,ketone
8517,2-[bis(2-methylpropyl)amino]ethanol,CC(C)CN(CCO)CC(C)C,487.15,10,"[1, 6, 7, 8]",4,True,CHON,alcohol
8518,"2,2,6-trimethylcyclohexane-1-carbaldehyde",CC1CCCC(C1C=O)(C)C,487.51,10,"[1, 6, 8]",3,True,CHO,aldehyde
8519,"1-methoxy-2,3,5-trimethylbenzene",CC1=CC(=C(C(=C1)OC)C)C,487.65,10,"[1, 6, 8]",3,True,CHO,ester
8520,1-methyl-4-prop-2-enoxybenzene,CC1=CC=C(C=C1)OCC=C,487.65,10,"[1, 6, 8]",3,True,CHO,ester
8521,"2,2-dimethyl-3-[3-(oxiran-2-yl)but-3-enyl]oxirane",CC1(C(O1)CCC(=C)C2CO2)C,487.91,10,"[1, 6, 8]",3,True,CHO,ester
8522,1-(4-ethoxybut-2-ynyl)pyrrolidine,CCOCC#CCN1CCCC1,487.94,10,"[1, 6, 7, 8]",4,True,CHON,ester
8523,1-phenylbutan-2-ol,CCC(CC1=CC=CC=C1)O,488.15,10,"[1, 6, 8]",3,True,CHO,aromatic
8524,"(2,6-dimethylphenyl) acetate",CC1=C(C(=CC=C1)C)OC(=O)C,488.15,10,"[1, 6, 8]",3,True,CHO,ester
8525,"(2,6,6-trimethylcyclohex-2-en-1-yl)methanol",CC1=CCCC(C1CO)(C)C,488.15,10,"[1, 6, 8]",3,True,CHO,alkene
8526,3-propan-2-ylheptan-1-ol,CCCCC(CCO)C(C)C,488.35,10,"[1, 6, 8]",3,True,CHO,alcohol
8527,3-[2-(2-prop-2-enoxyethoxy)ethoxy]prop-1-ene,C=CCOCCOCCOCC=C,489.02,10,"[1, 6, 8]",3,True,CHO,ester
8528,4-methylnonan-1-ol,CCCCCC(C)CCCO,489.15,10,"[1, 6, 8]",3,True,CHO,alcohol
8529,"4,10-dioxapentacyclo[6.3.1.02,7.03,5.09,11]dodecane",C1C2C3CC4C(C3C1C5C2O5)O4,489.18,10,"[1, 6, 8]",3,True,CHO,ester
8530,"1,2,2,6,6-pentamethylpiperidin-4-amine",CC1(CC(CC(N1C)(C)C)N)C,489.65,10,"[1, 6, 7]",3,True,CHN,amine
8531,3-methylbutyl 3-methylbut-2-enoate,CC(C)CCOC(=O)C=C(C)C,490.22,10,"[1, 6, 8]",3,True,CHO,ester
8532,2-methylbutyl (Z)-2-methylbut-2-enoate,CCC(C)COC(=O)/C(=C\C)/C,490.22,10,"[1, 6, 8]",3,True,CHO,ester
8533,[(E)-3-methylpent-3-enyl] 2-methylpropanoate,C/C=C(\C)/CCOC(=O)C(C)C,490.22,10,"[1, 6, 8]",3,True,CHO,ester
8534,[(Z)-hex-3-enyl] 2-methylpropanoate,CC/C=C\CCOC(=O)C(C)C,490.34,10,"[1, 6, 8]",3,True,CHO,ester
8535,2-ethyl-1-benzofuran,CCC1=CC2=CC=CC=C2O1,490.65,10,"[1, 6, 8]",3,True,CHO,aromatic
8536,pentyl (Z)-2-methylbut-2-enoate,CCCCCOC(=O)/C(=C\C)/C,490.66,10,"[1, 6, 8]",3,True,CHO,ester
8537,pentyl 3-methylbut-2-enoate,CCCCCOC(=O)C=C(C)C,490.66,10,"[1, 6, 8]",3,True,CHO,ester
8538,methyl (E)-non-2-enoate,CCCCCC/C=C/C(=O)OC,490.78,10,"[1, 6, 8]",3,True,CHO,ester
8539,ethyl oct-3-enoate,CCCCC=CCC(=O)OCC,490.78,10,"[1, 6, 8]",3,True,CHO,ester
8540,ethyl (E)-oct-2-enoate,CCCCC/C=C/C(=O)OCC,490.78,10,"[1, 6, 8]",3,True,CHO,ester
8541,[(Z)-hex-3-enyl] butanoate,CCCC(=O)OCC/C=C\CC,490.78,10,"[1, 6, 8]",3,True,CHO,ester
8542,hexyl (E)-but-2-enoate,CCCCCCOC(=O)/C=C/C,490.78,10,"[1, 6, 8]",3,True,CHO,ester
8543,[(E)-hex-2-enyl] butanoate,CCC/C=C/COC(=O)CCC,490.78,10,"[1, 6, 8]",3,True,CHO,ester
8544,[(Z)-oct-3-enyl] acetate,CCCC/C=C\CCOC(=O)C,490.78,10,"[1, 6, 8]",3,True,CHO,ester
8545,[(Z)-hex-4-enyl] butanoate,CCCC(=O)OCCC/C=C\C,490.78,10,"[1, 6, 8]",3,True,CHO,ester
8546,ethyl (E)-oct-4-enoate,CCC/C=C/CCC(=O)OCC,490.78,10,"[1, 6, 8]",3,True,CHO,ester
8547,ethyl oct-4-enoate,CCCC=CCCC(=O)OCC,490.78,10,"[1, 6, 8]",3,True,CHO,ester
8548,4-(2-methylpropyl)cyclohexan-1-one,CC(C)CC1CCC(=O)CC1,491.15,10,"[1, 6, 8]",3,True,CHO,ketone
8549,2-(2-methoxypropoxy)-1-prop-2-enoxypropane,CC(COCC=C)OCC(C)OC,491.46,10,"[1, 6, 8]",3,True,CHO,ester
8550,2-butylhexan-1-ol,CCCCC(CCCC)CO,491.65,10,"[1, 6, 8]",3,True,CHO,alcohol
8551,"2-(2,2,3-trimethylcyclopent-3-en-1-yl)acetaldehyde",CC1=CCC(C1(C)C)CC=O,492.05,10,"[1, 6, 8]",3,True,CHO,alkene
8552,"2,6-diethylphenol",CCC1=C(C(=CC=C1)CC)O,492.15,10,"[1, 6, 8]",3,True,CHO,aromatic
8553,"4,6-dimethyl-1-benzofuran",CC1=CC(=C2C=COC2=C1)C,492.15,10,"[1, 6, 8]",3,True,CHO,aromatic
8554,1-methoxy-3-(3-prop-2-enoxypropoxy)propane,COCCCOCCCOCC=C,492.34,10,"[1, 6, 8]",3,True,CHO,ester
8555,2-[2-(2-ethoxyethoxy)ethoxy]-2-methylpropane,CCOCCOCCOC(C)(C)C,492.43,10,"[1, 6, 8]",3,True,CHO,ester
8556,"(2E)-3,7-dimethylocta-2,6-dienenitrile",CC(=CCC/C(=C/C#N)/C)C,492.65,10,"[1, 6, 7]",3,True,CHN,alkene
8557,1-(2-methylphenyl)propan-1-one,CCC(=O)C1=CC=CC=C1C,492.65,10,"[1, 6, 8]",3,True,CHO,aromatic
8558,"6,6-dimethyl-3-propan-2-yloxan-2-one",CC(C)C1CCC(OC1=O)(C)C,492.76,10,"[1, 6, 8]",3,True,CHO,ester
8559,2-propyl-1H-benzimidazole,CCCC1=NC2=CC=CC=C2N1,493.15,10,"[1, 6, 7]",3,True,CHN,aromatic
8560,4-methyl-1-propan-2-ylbicyclo[3.1.0]hex-3-en-2-one,CC1=CC(=O)C2(C1C2)C(C)C,493.15,10,"[1, 6, 8]",3,True,CHO,alkene
8561,4-methyl-N-propan-2-ylaniline,CC1=CC=C(C=C1)NC(C)C,493.15,10,"[1, 6, 7]",3,True,CHN,aromatic
8562,"2,5-dimethyl-1-benzofuran",CC1=CC2=C(C=C1)OC(=C2)C,493.15,10,"[1, 6, 8]",3,True,CHO,aromatic
8563,"1,7-diazabicyclo[5.3.2]dodecane",C1CCN2CCCN(CC1)CC2,493.18,10,"[1, 6, 7]",3,True,CHN,amine
8564,"1,6-diazabicyclo[4.4.2]dodecane",C1CCN2CCCCN(C1)CC2,493.18,10,"[1, 6, 7]",3,True,CHN,amine
8565,"1,8-diazabicyclo[6.3.1]dodecane",C1CCCN2CCCN(C2)CC1,493.18,10,"[1, 6, 7]",3,True,CHN,amine
8566,"8-tricyclo[3.2.1.02,4]octanyl acetate",CC(=O)OC1C2CCC1C3C2C3,493.23,10,"[1, 6, 8]",3,True,CHO,ester
8567,3-hexyloxolan-2-one,CCCCCCC1CCOC1=O,493.36,10,"[1, 6, 8]",3,True,CHO,ester
8568,4-hexyloxolan-2-one,CCCCCCC1CC(=O)OC1,493.36,10,"[1, 6, 8]",3,True,CHO,ester
8569,"2-methyl-N,N-di(propan-2-yl)propanamide",CC(C)C(=O)N(C(C)C)C(C)C,493.39,10,"[1, 6, 7, 8]",4,True,CHON,amide
8570,4-butyl-4-ethyloxolan-2-one,CCCCC1(CC(=O)OC1)CC,493.6,10,"[1, 6, 8]",3,True,CHO,ester
8571,"5,6-dimethyl-1-benzofuran",CC1=CC2=C(C=C1C)OC=C2,494.15,10,"[1, 6, 8]",3,True,CHO,aromatic
8572,1-phenylbutan-1-amine,CCCC(C1=CC=CC=C1)N,494.15,10,"[1, 6, 7]",3,True,CHN,aromatic
8573,"[(2E,4E)-hexa-2,4-dienyl] 2-methylpropanoate",C/C=C/C=C/COC(=O)C(C)C,494.5,10,"[1, 6, 8]",3,True,CHO,ester
8574,"2-methylpropyl (2E,4E)-hexa-2,4-dienoate",C/C=C/C=C/C(=O)OCC(C)C,494.5,10,"[1, 6, 8]",3,True,CHO,ester
8575,"pentacyclo[5.3.0.02,5.03,9.04,8]decan-6-one",C1C2C3C4C1C5C2C3C4C5=O,494.56,10,"[1, 6, 8]",3,True,CHO,ketone
8576,[(E)-2-methylbut-2-enyl] (E)-2-methylbut-2-enoate,C/C=C(\C)/COC(=O)/C(=C/C)/C,494.7,10,"[1, 6, 8]",3,True,CHO,ester
8577,2-methylbut-2-enyl 2-methylbut-2-enoate,CC=C(C)COC(=O)C(=CC)C,494.7,10,"[1, 6, 8]",3,True,CHO,ester
8578,"N,N-dimethyloctanamide",CCCCCCCC(=O)N(C)C,494.71,10,"[1, 6, 7, 8]",4,True,CHON,amide
8579,"N,N-dibutylacetamide",CCCCN(CCCC)C(=O)C,494.71,10,"[1, 6, 7, 8]",4,True,CHON,amide
8580,"1,1,3-triethoxybutane",CCOC(C)CC(OCC)OCC,494.78,10,"[1, 6, 8]",3,True,CHO,ester
8581,dibutan-2-yl oxalate,CCC(C)OC(=O)C(=O)OC(C)CC,494.9,10,"[1, 6, 8]",3,True,CHO,ester
8582,"1,4-dimethoxybicyclo[2.2.2]oct-2-ene",COC12CCC(CC1)(C=C2)OC,494.9,10,"[1, 6, 8]",3,True,CHO,ester
8583,"butyl (2E,4E)-hexa-2,4-dienoate",CCCCOC(=O)/C=C/C=C/C,494.94,10,"[1, 6, 8]",3,True,CHO,ester
8584,"hexa-2,4-dienyl butanoate",CCCC(=O)OCC=CC=CC,494.94,10,"[1, 6, 8]",3,True,CHO,ester
8585,[(Z)-hex-3-enyl] (E)-but-2-enoate,CC/C=C\CCOC(=O)/C=C/C,494.94,10,"[1, 6, 8]",3,True,CHO,ester
8586,"4,7-dimethyl-4,4a,5,6,7,7a-hexahydro-1H-cyclopenta[c]pyran-3-one",CC1CCC2C1COC(=O)C2C,495.03,10,"[1, 6, 8]",3,True,CHO,ester
8587,"3,6-dimethyl-3a,4,5,6,7,7a-hexahydro-3H-1-benzofuran-2-one",CC1CCC2C(C(=O)OC2C1)C,495.03,10,"[1, 6, 8]",3,True,CHO,ester
8588,"3,6-dimethyl-1-benzofuran",CC1=CC2=C(C=C1)C(=CO2)C,495.15,10,"[1, 6, 8]",3,True,CHO,aromatic
8589,2-aminonaphthalen-1-ol,C1=CC=C2C(=C1)C=CC(=C2O)N,495.15,10,"[1, 6, 7, 8]",4,True,CHON,alcohol
8590,"1-(2,2-dimethoxyethoxy)hexane",CCCCCCOCC(OC)OC,495.22,10,"[1, 6, 8]",3,True,CHO,ester
8591,ethyl oct-2-ynoate,CCCCCC#CC(=O)OCC,495.62,10,"[1, 6, 8]",3,True,CHO,ester
8592,"N-ethyl-2,5-dimethylaniline",CCNC1=C(C=CC(=C1)C)C,495.65,10,"[1, 6, 7]",3,True,CHN,aromatic
8593,"1,4-dimethoxybicyclo[2.2.2]octane",COC12CCC(CC1)(CC2)OC,495.74,10,"[1, 6, 8]",3,True,CHO,ester
8594,2-[6-(oxiran-2-yl)hexyl]oxirane,C1C(O1)CCCCCCC2CO2,495.78,10,"[1, 6, 8]",3,True,CHO,ester
8595,"5,8,8-trimethyl-3-oxabicyclo[3.2.1]octan-2-one",CC1(C2CCC1(COC2=O)C)C,495.91,10,"[1, 6, 8]",3,True,CHO,ester
8596,4-propan-2-ylcyclohexene-1-carbaldehyde,CC(C)C1CCC(=CC1)C=O,496.15,10,"[1, 6, 8]",3,True,CHO,alkene
8597,"2,5-di(propan-2-yl)-1,3-dioxane",CC(C)C1COC(OC1)C(C)C,496.3,10,"[1, 6, 8]",3,True,CHO,ester
8598,"2,6,6-trimethylcyclohex-2-ene-1-carbaldehyde",CC1=CCCC(C1C=O)(C)C,496.32,10,"[1, 6, 8]",3,True,CHO,alkene
8599,"1,2,4-trimethylcyclohex-3-ene-1-carbaldehyde",CC1C=C(CCC1(C)C=O)C,496.32,10,"[1, 6, 8]",3,True,CHO,alkene
8600,2-bicyclo[2.2.1]heptanyl prop-2-enoate,C=CC(=O)OC1CC2CCC1C2,496.38,10,"[1, 6, 8]",3,True,CHO,ester
8601,(1-ethynylcyclohexyl) acetate,CC(=O)OC1(CCCCC1)C#C,496.53,10,"[1, 6, 8]",3,True,CHO,ester
8602,4-methyl-7-propan-2-yloxepan-2-one,CC1CCC(OC(=O)C1)C(C)C,496.79,10,"[1, 6, 8]",3,True,CHO,ester
8603,"2-pentyl-2,3-dihydropyran-6-one",CCCCCC1CC=CC(=O)O1,496.79,10,"[1, 6, 8]",3,True,CHO,ester
8604,5-(4-methylpent-2-en-2-yl)oxolan-2-one,CC(C)C=C(C)C1CCC(=O)O1,496.96,10,"[1, 6, 8]",3,True,CHO,ester
8605,"4-methyl-2-pentyl-1,3-dioxane",CCCCCC1OCCC(O1)C,497.18,10,"[1, 6, 8]",3,True,CHO,ester
8606,"2,5,5-trimethyl-2-propan-2-yl-1,3-dioxane",CC(C)C1(OCC(CO1)(C)C)C,497.22,10,"[1, 6, 8]",3,True,CHO,ester
8607,5-[(Z)-hex-3-enyl]oxolan-2-one,CC/C=C\CCC1CCC(=O)O1,497.52,10,"[1, 6, 8]",3,True,CHO,ester
8608,[(Z)-hex-3-enyl] cyclopropanecarboxylate,CC/C=C\CCOC(=O)C1CC1,497.52,10,"[1, 6, 8]",3,True,CHO,ester
8609,"2-heptyl-1,3-dioxolane",CCCCCCCC1OCCO1,497.58,10,"[1, 6, 8]",3,True,CHO,ester
8610,[(E)-2-ethoxyethenyl]benzene,CCO/C=C/C1=CC=CC=C1,497.65,10,"[1, 6, 8]",3,True,CHO,ester
8611,"2,5,5-trimethyl-2-propyl-1,3-dioxane",CCCC1(OCC(CO1)(C)C)C,497.66,10,"[1, 6, 8]",3,True,CHO,ester
8612,"2-hexyl-2-methyl-1,3-dioxolane",CCCCCCC1(OCCO1)C,497.82,10,"[1, 6, 8]",3,True,CHO,ester
8613,"2-[2-[2-(dimethylamino)ethoxy]ethoxy]-N,N-dimethylethanamine",CN(C)CCOCCOCCN(C)C,498.12,10,"[1, 6, 7, 8]",4,True,CHON,ester
8614,3-pentylpyridine,CCCCCC1=CN=CC=C1,498.15,10,"[1, 6, 7]",3,True,CHN,aromatic
8615,N-butan-2-ylaniline,CCC(C)NC1=CC=CC=C1,498.15,10,"[1, 6, 7]",3,True,CHN,aromatic
8616,2-prop-2-enoxybenzamide,C=CCOC1=CC=CC=C1C(=O)N,498.15,10,"[1, 6, 7, 8]",4,True,CHON,ester
8617,ethyl 2-(diethylamino)butanoate,CCC(C(=O)OCC)N(CC)CC,498.62,10,"[1, 6, 7, 8]",4,True,CHON,ester
8618,ethyl bicyclo[2.2.1]hept-5-ene-2-carboxylate,CCOC(=O)C1CC2CC1C=C2,498.86,10,"[1, 6, 8]",3,True,CHO,ester
8619,2-bicyclo[2.2.1]heptanylmethyl acetate,CC(=O)OCC1CC2CCC1C2,499.7,10,"[1, 6, 8]",3,True,CHO,ester
8620,"(2,3-dimethylphenyl) acetate",CC1=C(C(=CC=C1)OC(=O)C)C,500.15,10,"[1, 6, 8]",3,True,CHO,ester
8621,2-(4-methylcyclohex-3-en-1-yl)propanal,CC1=CCC(CC1)C(C)C=O,500.31,10,"[1, 6, 8]",3,True,CHO,alkene
8622,"2-ethyl-4,6-dimethylphenol",CCC1=CC(=CC(=C1O)C)C,500.65,10,"[1, 6, 8]",3,True,CHO,aromatic
8623,(6-methylcyclohex-3-en-1-yl)methyl acetate,CC1CC=CCC1COC(=O)C,500.66,10,"[1, 6, 8]",3,True,CHO,ester
8624,"4,6,6-trimethylbicyclo[3.1.1]hept-3-en-2-one",CC1=CC(=O)C2CC1C2(C)C,500.7,10,"[1, 6, 8]",3,True,CHO,alkene
8625,"1,2,3,4,4a,5,6,7,8,8a-decahydronaphthalen-1-amine",C1CCC2C(C1)CCCC2N,500.75,10,"[1, 6, 7]",3,True,CHN,amine
8626,(4-methylphenyl)methyl acetate,CC1=CC=C(C=C1)COC(=O)C,501.65,10,"[1, 6, 8]",3,True,CHO,ester
8627,3-methyl-2-propan-2-ylphenol,CC1=C(C(=CC=C1)O)C(C)C,501.65,10,"[1, 6, 8]",3,True,CHO,aromatic
8628,"4,8,8-trimethyloxocan-2-one",CC1CCCC(OC(=O)C1)(C)C,501.74,10,"[1, 6, 8]",3,True,CHO,ester
8629,6-[(Z)-pent-2-enyl]oxan-2-one,CC/C=C\CC1CCCC(=O)O1,501.79,10,"[1, 6, 8]",3,True,CHO,ester
8630,1-cyclohexylbutan-1-one,CCCC(=O)C1CCCCC1,501.82,10,"[1, 6, 8]",3,True,CHO,ketone
8631,"4-hexyl-1,3-dioxane",CCCCCCC1CCOCO1,501.85,10,"[1, 6, 8]",3,True,CHO,ester
8632,7-butyloxepan-2-one,CCCCC1CCCCC(=O)O1,501.9,10,"[1, 6, 8]",3,True,CHO,ester
8633,ditert-butyl oxalate,CC(C)(C)OC(=O)C(=O)OC(C)(C)C,502.15,10,"[1, 6, 8]",3,True,CHO,ester
8634,"2,4-diethylphenol",CCC1=CC(=C(C=C1)O)CC,502.15,10,"[1, 6, 8]",3,True,CHO,aromatic
8635,"4-ethyl-1,2-dimethoxybenzene",CCC1=CC(=C(C=C1)OC)OC,502.15,10,"[1, 6, 8]",3,True,CHO,ester
8636,"2-methylbutan-2-yl 2,2-dimethylpropaneperoxoate",CCC(C)(C)OOC(=O)C(C)(C)C,502.58,10,"[1, 6, 8]",3,True,CHO,ester
8637,"tert-butyl 2,2-dimethylbutaneperoxoate",CCC(C)(C)C(=O)OOC(C)(C)C,502.58,10,"[1, 6, 8]",3,True,CHO,ester
8638,4-pentylpyridine,CCCCCC1=CC=NC=C1,502.65,10,"[1, 6, 7]",3,True,CHN,aromatic
8639,ethyl N-benzylcarbamate,CCOC(=O)NCC1=CC=CC=C1,503.15,10,"[1, 6, 7, 8]",4,True,CHON,ester
8640,1-(3-butoxypropoxy)propan-1-ol,CCCCOCCCOC(CC)O,503.15,10,"[1, 6, 8]",3,True,CHO,ester
8641,"3,4-diethylhexane-3,4-diol",CCC(CC)(C(CC)(CC)O)O,503.15,10,"[1, 6, 8]",3,True,CHO,alcohol