,Name,SMILES,Tb,C Atom,Atom,Count Unique Atom,Pass Screen,Atom2,Func. Group
3745,4-(methylamino)butanenitrile,CNCCCC#N,446.15,5,"[1, 6, 7]",3,True,CHN,amine
3746,4-methylpiperazin-1-amine,CN1CCN(CC1)N,446.65,5,"[1, 6, 7]",3,True,CHN,amine
3747,2-O-ethyl 1-O-methyl oxalate,CCOC(=O)C(=O)OC,446.85,5,"[1, 6, 8]",3,True,CHO,ester
3748,1-[methyl(nitroso)amino]ethyl acetate,CC(N(C)N=O)OC(=O)C,447.62,5,"[1, 6, 7, 8]",4,True,CHON,ester
3749,tert-butylperoxymethanol,CC(C)(C)OOCO,447.79,5,"[1, 6, 8]",3,True,CHO,alcohol
3750,1-imidazol-1-ylethanone,CC(=O)N1C=CN=C1,448.01,5,"[1, 6, 7, 8]",4,True,CHON,aromatic
3751,ethyl 2-[methyl(nitroso)amino]acetate,CCOC(=O)CN(C)N=O,448.06,5,"[1, 6, 7, 8]",4,True,CHON,ester
3752,[ethyl(nitroso)amino]methyl acetate,CCN(COC(=O)C)N=O,448.06,5,"[1, 6, 7, 8]",4,True,CHON,ester
3753,oxolan-3-ylmethanol,C1COCC1CO,448.41,5,"[1, 6, 8]",3,True,CHO,ester
3754,2-methyloxolan-2-ol,CC1(CCCO1)O,448.65,5,"[1, 6, 8]",3,True,CHO,ester
3755,methyl (Z)-3-aminobut-2-enoate,C/C(=C/C(=O)OC)/N,448.79,5,"[1, 6, 7, 8]",4,True,CHON,ester
3756,"2-methyl-1,3-dioxan-5-ol",CC1OCC(CO1)O,449.15,5,"[1, 6, 8]",3,True,CHO,ester
3757,oxan-2-ol,C1CCOC(C1)O,452.68,5,"[1, 6, 8]",3,True,CHO,ester
3758,"1,1-diethylurea",CCN(CC)C(=O)N,452.84,5,"[1, 6, 7, 8]",4,True,CHON,amide
3759,2-methylidenebutanoic acid,CCC(=C)C(=O)O,453.15,5,"[1, 6, 8]",3,True,CHO,alkene
3760,"1,1,2,3-tetramethylguanidine",CNC(=NC)N(C)C,453.17,5,"[1, 6, 7]",3,True,CHN,amine
3761,2-hydroxy-3-methylbutanal,CC(C)C(C=O)O,453.96,5,"[1, 6, 8]",3,True,CHO,alcohol
3762,4-(nitrosomethylamino)butan-2-one,CC(=O)CCNCN=O,454.15,5,"[1, 6, 7, 8]",4,True,CHON,ketone
3763,butyl hydrogen carbonate,CCCCOC(=O)O,454.15,5,"[1, 6, 8]",3,True,CHO,carboxylic_acid
3764,5-hydroxypentanal,C(CCO)CC=O,454.84,5,"[1, 6, 8]",3,True,CHO,alcohol
3765,N-(2-hydroxyethyl)-N-prop-2-enylnitrous amide,C=CCN(CCO)N=O,455.15,5,"[1, 6, 7, 8]",4,True,CHON,alkene
3766,O-(oxan-2-yl)hydroxylamine,C1CCOC(C1)ON,455.45,5,"[1, 6, 7, 8]",4,True,CHON,ester
3767,2-methylbut-3-enoic acid,CC(C=C)C(=O)O,455.75,5,"[1, 6, 8]",3,True,CHO,alkene
3768,(3E)-3-hydroxyiminopentan-2-one,CC/C(=N\O)/C(=O)C,456.15,5,"[1, 6, 7, 8]",4,True,CHON,ketone
3769,"1-ethyl-3,3-dimethyl-1-nitrosourea",CCN(C(=O)N(C)C)N=O,456.15,5,"[1, 6, 7, 8]",4,True,CHON,amide
3770,2-amino-3-methylbutan-1-ol,CC(C)C(CO)N,456.65,5,"[1, 6, 7, 8]",4,True,CHON,alcohol
3771,(1E)-1-(dimethylhydrazinylidene)propan-2-one,CC(=O)/C=N/N(C)C,456.99,5,"[1, 6, 7, 8]",4,True,CHON,ketone
3772,1-methylcyclopropane-1-carboxylic acid,CC1(CC1)C(=O)O,457.2,5,"[1, 6, 8]",3,True,CHO,alcohol
3773,2-methyl-2-(oxiran-2-yl)oxirane,CC1(CO1)C2CO2,458.15,5,"[1, 6, 8]",3,True,CHO,ester
3774,(Z)-pent-2-enoic acid,CC/C=C\C(=O)O,458.15,5,"[1, 6, 8]",3,True,CHO,alkene
3775,"2,3-dihydro-1H-imidazo[1,2-b]pyrazole",C1CN2C(=CC=N2)N1,459.08,5,"[1, 6, 7]",3,True,CHN,aromatic
3776,"(2-methyl-1,3-dioxolan-4-yl)methanol",CC1OCC(O1)CO,460.15,5,"[1, 6, 8]",3,True,CHO,ester
3777,"(2E)-penta-2,4-dienoic acid",C=C/C=C/C(=O)O,460.35,5,"[1, 6, 8]",3,True,CHO,alkene
3778,ethyl 3-hydroxypropanoate,CCOC(=O)CCO,460.65,5,"[1, 6, 8]",3,True,CHO,ester
3779,"2-(1,3-oxazolidin-3-yl)ethanol",C1COCN1CCO,461.25,5,"[1, 6, 7, 8]",4,True,CHON,ester
3780,oxan-4-ol,C1COCCC1O,463.15,5,"[1, 6, 8]",3,True,CHO,ester
3781,"pentane-1,2,5-triol",C(CC(CO)O)CO,463.65,5,"[1, 6, 8]",3,True,CHO,alcohol
3782,pent-2-enoic acid,CCC=CC(=O)O,463.67,5,"[1, 6, 8]",3,True,CHO,alkene
3783,1-hydroxypropan-2-yl acetate,CC(CO)OC(=O)C,463.96,5,"[1, 6, 8]",3,True,CHO,ester
3784,methyl 2-hydroxybutanoate,CCC(C(=O)OC)O,463.96,5,"[1, 6, 8]",3,True,CHO,ester
3785,(Z)-4-hydroxypent-3-en-2-one,C/C(=C/C(=O)C)/O,464.09,5,"[1, 6, 8]",3,True,CHO,alkene
3786,"3,3-dimethoxypropanenitrile",COC(CC#N)OC,464.15,5,"[1, 6, 7, 8]",4,True,CHON,ester
3787,"1,3-diethyl-1-nitrosourea",CCNC(=O)N(CC)N=O,464.4,5,"[1, 6, 7, 8]",4,True,CHON,amide
3788,"1-nitroso-3,6-dihydro-2H-pyridine",C1CN(CC=C1)N=O,465.65,5,"[1, 6, 7, 8]",4,True,CHON,alkene
3789,(Z)-pent-3-enoic acid,C/C=C\CC(=O)O,466.15,5,"[1, 6, 8]",3,True,CHO,alkene
3790,1-methylpyrimidin-2-one,CN1C=CC=NC1=O,466.23,5,"[1, 6, 7, 8]",4,True,CHON,aromatic
3791,2-cyclopropylacetic acid,C1CC1CC(=O)O,466.25,5,"[1, 6, 8]",3,True,CHO,alcohol
3792,(3E)-3-methoxyiminobutan-2-one,C/C(=N\OC)/C(=O)C,466.85,5,"[1, 6, 7, 8]",4,True,CHON,ester
3793,"2-(4,5-dihydroimidazol-1-yl)ethanamine",C1CN(C=N1)CCN,467.51,5,"[1, 6, 7]",3,True,CHN,amine
3794,"1,4-dimethylimidazole",CC1=CN(C=N1)C,467.65,5,"[1, 6, 7]",3,True,CHN,aromatic
3795,2-aminopentan-1-ol,CCCC(CO)N,467.65,5,"[1, 6, 7, 8]",4,True,CHON,alcohol
3796,methyl (Z)-3-hydroxybut-2-enoate,C/C(=C/C(=O)OC)/O,468.44,5,"[1, 6, 8]",3,True,CHO,ester
3797,pent-2-ynoic acid,CCC#CC(=O)O,468.51,5,"[1, 6, 8]",3,True,CHO,alkyne
3798,pent-3-ynoic acid,CC#CCC(=O)O,468.51,5,"[1, 6, 8]",3,True,CHO,alkyne
3799,pyrrolidine-1-carboxamide,C1CCN(C1)C(=O)N,468.52,5,"[1, 6, 7, 8]",4,True,CHON,amide
3800,"5-methyl-1-nitroso-1,3-diazinane-2,4-dione",CC1CN(C(=O)NC1=O)N=O,469.15,5,"[1, 6, 7, 8]",4,True,CHON,amide
3801,"cyclopentane-1,3-dione",C1CC(=O)CC1=O,469.59,5,"[1, 6, 8]",3,True,CHO,ketone
3802,1-cyanoethenyl acetate,CC(=O)OC(=C)C#N,470.86,5,"[1, 6, 7, 8]",4,True,CHON,ester
3803,N-methyl-3-oxobutanamide,CC(=O)CC(=O)NC,471.91,5,"[1, 6, 7, 8]",4,True,CHON,amide
3804,diethylcarbamic acid,CCN(CC)C(=O)O,471.95,5,"[1, 6, 7, 8]",4,True,CHON,carboxylic_acid
3805,(E)-4-methoxybut-3-en-2-one,CC(=O)/C=C/OC,473.15,5,"[1, 6, 8]",3,True,CHO,ester
3806,(E)-pent-2-enoic acid,CC/C=C/C(=O)O,473.15,5,"[1, 6, 8]",3,True,CHO,alkene
3807,methyl 2-cyanopropanoate,CC(C#N)C(=O)OC,473.86,5,"[1, 6, 7, 8]",4,True,CHON,ester
3808,3-hydroxy-2-methyl-2H-furan-5-one,CC1C(=CC(=O)O1)O,475.28,5,"[1, 6, 8]",3,True,CHO,ester
3809,morpholine-4-carbonitrile,C1COCCN1C#N,475.42,5,"[1, 6, 7, 8]",4,True,CHON,ester
3810,"3-amino-2,2-dimethylpropan-1-ol",CC(C)(CN)CO,475.48,5,"[1, 6, 7, 8]",4,True,CHON,alcohol
3811,"pentane-2,3,4-trione",CC(=O)C(=O)C(=O)C,475.61,5,"[1, 6, 8]",3,True,CHO,ketone
3812,methyl 2-acetamidoacetate,CC(=O)NCC(=O)OC,476.26,5,"[1, 6, 7, 8]",4,True,CHON,ester
3813,ethyl N-acetylcarbamate,CCOC(=O)NC(=O)C,476.26,5,"[1, 6, 7, 8]",4,True,CHON,ester
3814,"1-methylpyrrole-2,5-dione",CN1C(=O)C=CC1=O,476.92,5,"[1, 6, 7, 8]",4,True,CHON,amide
3815,2-aminopentanedioic acid,C(CC(=O)O)C(C(=O)O)N,478.15,5,"[1, 6, 7, 8]",4,True,CHON,carboxylic_acid
3816,methyl (E)-3-cyanoprop-2-enoate,COC(=O)/C=C/C#N,478.46,5,"[1, 6, 7, 8]",4,True,CHON,ester
3817,"1,3-dioxan-2-ylmethanol",C1COC(OC1)CO,479.63,5,"[1, 6, 8]",3,True,CHO,ester
3818,1-(nitrosomethylamino)butan-2-one,CCC(=O)CNCN=O,481.44,5,"[1, 6, 7, 8]",4,True,CHON,ketone
3819,3-methoxybutanoic acid,CC(CC(=O)O)OC,481.49,5,"[1, 6, 8]",3,True,CHO,carboxylic_acid
3820,2-propan-2-yloxyacetic acid,CC(C)OCC(=O)O,481.49,5,"[1, 6, 8]",3,True,CHO,carboxylic_acid
3821,3-ethoxypropanoic acid,CCOCCC(=O)O,481.93,5,"[1, 6, 8]",3,True,CHO,carboxylic_acid
3822,N-(4-hydroxybutyl)-N-methylnitrous amide,CN(CCCCO)N=O,482.02,5,"[1, 6, 7, 8]",4,True,CHON,alcohol
3823,4-iminopentan-2-one,CC(=N)CC(=O)C,482.15,5,"[1, 6, 7, 8]",4,True,CHON,ketone
3824,"3-(2-hydroxyethyl)-1,3-oxazolidin-2-one",C1COC(=O)N1CCO,483.98,5,"[1, 6, 7, 8]",4,True,CHON,ester
3825,piperidin-4-ol,C1CNCCC1O,484.65,5,"[1, 6, 7, 8]",4,True,CHON,alcohol
3826,"2,2-dimethylpropanamide",CC(C)(C)C(=O)N,485.2,5,"[1, 6, 7, 8]",4,True,CHON,amide
3827,2-amino-2-methylbutanenitrile,CCC(C)(C#N)N,485.38,5,"[1, 6, 7]",3,True,CHN,amine
3828,2-imidazol-1-ylethanol,C1=CN(C=N1)CCO,486.32,5,"[1, 6, 7, 8]",4,True,CHON,aromatic
3829,ethyl N-cyano-N-methylcarbamate,CCOC(=O)N(C)C#N,486.74,5,"[1, 6, 7, 8]",4,True,CHON,ester
3830,1-hydroxypyridin-4-one,C1=CN(C=CC1=O)O,488.17,5,"[1, 6, 7, 8]",4,True,CHON,aromatic
3831,1-hydroxypyridin-2-one,C1=CC(=O)N(C=C1)O,488.17,5,"[1, 6, 7, 8]",4,True,CHON,aromatic
3832,2-aminocyclopentan-1-ol,C1CC(C(C1)O)N,489.32,5,"[1, 6, 7, 8]",4,True,CHON,alcohol
3833,"1,3,5,7,9-pentaoxecane",C1OCOCOCOCO1,490.05,5,"[1, 6, 8]",3,True,CHO,ester
3834,pentanehydrazide,CCCCC(=O)NN,490.57,5,"[1, 6, 7, 8]",4,True,CHON,amide
3835,tert-butyl N-aminocarbamate,CC(C)(C)OC(=O)NN,491.69,5,"[1, 6, 7, 8]",4,True,CHON,ester
3836,ethyl N-ethyl-N-nitrosocarbamate,CCN(C(=O)OCC)N=O,493.15,5,"[1, 6, 7, 8]",4,True,CHON,ester
3837,"N'-(2-aminoethyl)propane-1,3-diamine",C(CN)CNCCN,494.15,5,"[1, 6, 7]",3,True,CHN,amine
3838,N-propan-2-ylacetamide,CC(C)NC(=O)C,494.9,5,"[1, 6, 7, 8]",4,True,CHON,amide
3839,"5,5-dimethyl-1,3-oxazolidine-2,4-dione",CC1(C(=O)NC(=O)O1)C,495.57,5,"[1, 6, 7, 8]",4,True,CHON,ester
3840,1-nitrosopiperidin-3-ol,C1CC(CN(C1)N=O)O,497.3,5,"[1, 6, 7, 8]",4,True,CHON,alcohol
3841,1-nitrosopiperidin-4-ol,C1CN(CCC1O)N=O,497.3,5,"[1, 6, 7, 8]",4,True,CHON,alcohol
3842,"2-ethylpropane-1,3-diol",CCC(CO)CO,497.92,5,"[1, 6, 8]",3,True,CHO,alcohol
3843,"pentane-1,3-diol",CCC(CCO)O,497.92,5,"[1, 6, 8]",3,True,CHO,alcohol
3844,3-hydroxycyclopent-2-en-1-one,C1CC(=O)C=C1O,498.09,5,"[1, 6, 8]",3,True,CHO,alkene
3845,2-hydroxycyclopent-2-en-1-one,C1CC(=O)C(=C1)O,498.09,5,"[1, 6, 8]",3,True,CHO,alkene
3846,N-propylacetamide,CCCNC(=O)C,498.15,5,"[1, 6, 7, 8]",4,True,CHON,amide
3847,oxolane-2-carboxylic acid,C1CC(OC1)C(=O)O,501.74,5,"[1, 6, 8]",3,True,CHO,carboxylic_acid
3848,oxolane-3-carboxylic acid,C1COCC1C(=O)O,501.74,5,"[1, 6, 8]",3,True,CHO,carboxylic_acid
3849,1-(hydroxymethyl)pyrrolidin-2-one,C1CC(=O)N(C1)CO,502.12,5,"[1, 6, 7, 8]",4,True,CHON,amide
3850,3-hydroxy-2-methylidenebutanenitrile,CC(C(=C)C#N)O,504.38,5,"[1, 6, 7, 8]",4,True,CHON,alkene
3851,3-hydroxypent-4-enenitrile,C=CC(CC#N)O,504.5,5,"[1, 6, 7, 8]",4,True,CHON,alkene
3852,2-hydroxy-2-methylbutanenitrile,CCC(C)(C#N)O,505.03,5,"[1, 6, 7, 8]",4,True,CHON,alcohol
3853,"N'-(cyanomethyl)-N,N-dimethylmethanimidamide",CN(C)C=NCC#N,505.2,5,"[1, 6, 7]",3,True,CHN,amine
3854,2-methyl-2-(methylamino)propanoic acid,CC(C)(C(=O)O)NC,506.45,5,"[1, 6, 7, 8]",4,True,CHON,carboxylic_acid
3855,"cyclopentane-1,3-diol",C1CC(CC1O)O,508.97,5,"[1, 6, 8]",3,True,CHO,alcohol
3856,"4-methylmorpholine-3,5-dione",CN1C(=O)COCC1=O,508.98,5,"[1, 6, 7, 8]",4,True,CHON,ester
3857,"3,7-dinitroso-1,3,5,7-tetrazabicyclo[3.3.1]nonane",C1N2CN(CN1CN(C2)N=O)N=O,509.11,5,"[1, 6, 7, 8]",4,True,CHON,amine
3858,2-(propylamino)acetic acid,CCCNCC(=O)O,509.68,5,"[1, 6, 7, 8]",4,True,CHON,carboxylic_acid
3859,N-(2-hydroxyethyl)propanamide,CCC(=O)NCCO,510.22,5,"[1, 6, 7, 8]",4,True,CHON,alcohol
3860,prop-2-enyl N-(hydroxymethyl)carbamate,C=CCOC(=O)NCO,511.25,5,"[1, 6, 7, 8]",4,True,CHON,ester
3861,tert-butyl N-hydroxycarbamate,CC(C)(C)OC(=O)NO,511.34,5,"[1, 6, 7, 8]",4,True,CHON,ester
3862,"3-methylpyrrolidine-2,5-dione",CC1CC(=O)NC1=O,513.47,5,"[1, 6, 7, 8]",4,True,CHON,amide
3863,propan-2-yl N-(hydroxymethyl)carbamate,CC(C)OC(=O)NCO,514.13,5,"[1, 6, 7, 8]",4,True,CHON,ester
3864,1-butan-2-yl-1-nitrosourea,CCC(C)N(C(=O)N)N=O,515.8,5,"[1, 6, 7, 8]",4,True,CHON,amide
3865,1-butyl-1-nitrosourea,CCCCN(C(=O)N)N=O,516.24,5,"[1, 6, 7, 8]",4,True,CHON,amide
3866,2-acetyloxypropanoic acid,CC(C(=O)O)OC(=O)C,517.29,5,"[1, 6, 8]",3,True,CHO,carboxylic_acid
3867,(E)-4-oxopent-2-enoic acid,CC(=O)/C=C/C(=O)O,517.54,5,"[1, 6, 8]",3,True,CHO,carboxylic_acid
3868,4-methoxy-4-oxobutanoic acid,COC(=O)CCC(=O)O,517.73,5,"[1, 6, 8]",3,True,CHO,carboxylic_acid
3869,"piperidine-2,6-dione",C1CC(=O)NC(=O)C1,522.41,5,"[1, 6, 7, 8]",4,True,CHON,amide
3870,pyrrolidine-2-carboxylic acid,C1CC(NC1)C(=O)O,523.34,5,"[1, 6, 7, 8]",4,True,CHON,carboxylic_acid
3871,ethyl N-(cyanomethyl)carbamate,CCOC(=O)NCC#N,524.47,5,"[1, 6, 7, 8]",4,True,CHON,ester
3872,"1-ethylimidazolidine-2,4-dione",CCN1CC(=O)NC1=O,526.31,5,"[1, 6, 7, 8]",4,True,CHON,amide
3873,N-[2-(2-hydroxyethoxy)ethyl]formamide,C(COCCO)NC=O,527.43,5,"[1, 6, 7, 8]",4,True,CHON,ester
3874,2-(3-aminopropylamino)ethanol,C(CN)CNCCO,528.15,5,"[1, 6, 7, 8]",4,True,CHON,alcohol
3875,2-aminopent-4-enoic acid,C=CCC(C(=O)O)N,528.28,5,"[1, 6, 7, 8]",4,True,CHON,carboxylic_acid
3876,2-amino-2-methylbutanoic acid,CCC(C)(C(=O)O)N,528.81,5,"[1, 6, 7, 8]",4,True,CHON,carboxylic_acid
3877,"3-amino-2,2-dimethylpropanoic acid",CC(C)(CN)C(=O)O,528.81,5,"[1, 6, 7, 8]",4,True,CHON,carboxylic_acid
3878,"3-methyl-1H-pyrimidine-2,4-dione",CN1C(=O)C=CNC1=O,529.74,5,"[1, 6, 7, 8]",4,True,CHON,aromatic
3879,"1-methylpyrimidine-2,4-dione",CN1C=CC(=O)NC1=O,529.74,5,"[1, 6, 7, 8]",4,True,CHON,aromatic
3880,"2-methyl-1H-pyridazine-3,6-dione",CN1C(=O)C=CC(=O)N1,529.74,5,"[1, 6, 7, 8]",4,True,CHON,aromatic
3881,4-hydroxy-5-methylfuran-3-one,CC1=C(C(=O)CO1)O,530.02,5,"[1, 6, 8]",3,True,CHO,ester
3882,2-[cyanomethyl(methyl)amino]acetonitrile,CN(CC#N)CC#N,530.6,5,"[1, 6, 7]",3,True,CHN,amine
3883,1-(2-aminoethyl)imidazolidin-2-one,C1CN(C(=O)N1)CCN,531.02,5,"[1, 6, 7, 8]",4,True,CHON,amide
3884,2-amino-3-methylbutanoic acid,CC(C)C(C(=O)O)N,531.16,5,"[1, 6, 7, 8]",4,True,CHON,carboxylic_acid
3885,2-aminopentanoic acid,CCCC(C(=O)O)N,531.6,5,"[1, 6, 7, 8]",4,True,CHON,carboxylic_acid
3886,5-aminopentanoic acid,C(CCN)CC(=O)O,532.04,5,"[1, 6, 7, 8]",4,True,CHON,carboxylic_acid
3887,5-hydroxypentanamide,C(CCO)CC(=O)N,532.58,5,"[1, 6, 7, 8]",4,True,CHON,alcohol
3888,(NE)-N-(1H-pyrrol-2-ylmethylidene)hydroxylamine,C1=CNC(=C1)/C=N/O,534.96,5,"[1, 6, 7, 8]",4,True,CHON,aromatic
3889,"cyclopent-4-ene-1,2,3-trione",C1=CC(=O)C(=O)C1=O,536.57,5,"[1, 6, 8]",3,True,CHO,aromatic
3890,2-methoxyethyl N-(hydroxymethyl)carbamate,COCCOC(=O)NCO,536.99,5,"[1, 6, 7, 8]",4,True,CHON,ester
3891,3-(2-aminoethylamino)propanenitrile,C(CNCCN)C#N,538.78,5,"[1, 6, 7]",3,True,CHN,amine
3892,ethyl N-(2-hydroxyethyl)-N-nitrosocarbamate,CCOC(=O)N(CCO)N=O,540.24,5,"[1, 6, 7, 8]",4,True,CHON,ester
3893,"3-methyl-4,5-dihydro-1H-pyridazin-6-one",CC1=NNC(=O)CC1,540.65,5,"[1, 6, 7, 8]",4,True,CHON,amide
3894,3-hydroxy-2-(hydroxymethyl)-2-methylpropanal,CC(CO)(CO)C=O,543.79,5,"[1, 6, 8]",3,True,CHO,alcohol
3895,(E)-3-(dimethylamino)prop-2-enal,CN(C)/C=C/C=O,544.7,5,"[1, 6, 7, 8]",4,True,CHON,aldehyde
3896,2-ethyl-1H-imidazole,CCC1=NC=CN1,545.65,5,"[1, 6, 7]",3,True,CHN,aromatic
3897,1-(2-hydroxyethylamino)propan-2-ol,CC(CNCCO)O,548.09,5,"[1, 6, 7, 8]",4,True,CHON,alcohol
3898,2-hydroxy-2-methylbutanoic acid,CCC(C)(C(=O)O)O,548.46,5,"[1, 6, 8]",3,True,CHO,alcohol
3899,"3-hydroxy-2,2-dimethylpropanoic acid",CC(C)(CO)C(=O)O,548.46,5,"[1, 6, 8]",3,True,CHO,alcohol
3900,1-(2-hydroxyethyl)imidazolidin-2-one,C1CN(C(=O)N1)CCO,550.67,5,"[1, 6, 7, 8]",4,True,CHON,amide
3901,2-hydroxy-3-methylbutanoic acid,CC(C)C(C(=O)O)O,550.81,5,"[1, 6, 8]",3,True,CHO,alcohol
3902,2-hydroxypentanoic acid,CCCC(C(=O)O)O,551.25,5,"[1, 6, 8]",3,True,CHO,alcohol
3903,(NZ)-N-(3-amino-3-methylbutan-2-ylidene)hydroxylamine,C/C(=N/O)/C(C)(C)N,552.04,5,"[1, 6, 7, 8]",4,True,CHON,amine
3904,"methyl (2S)-2,3-dihydroxy-2-methylpropanoate",C[C@](CO)(C(=O)OC)O,553.35,5,"[1, 6, 8]",3,True,CHO,ester
3905,2-amino-4-methoxybutanoic acid,COCCC(C(=O)O)N,554.02,5,"[1, 6, 7, 8]",4,True,CHON,carboxylic_acid
3906,"3-cyano-1,1,2-trimethylguanidine",CN=C(NC#N)N(C)C,555.25,5,"[1, 6, 7]",3,True,CHN,amine
3907,2-(propan-2-ylideneamino)oxyacetic acid,CC(=NOCC(=O)O)C,558.49,5,"[1, 6, 7, 8]",4,True,CHON,carboxylic_acid
3908,2-hydroxyethyl 2-hydroxypropanoate,CC(C(=O)OCCO)O,559.15,5,"[1, 6, 8]",3,True,CHO,ester
3909,"N,N-bis(2-hydroxyethyl)formamide",C(CO)N(CCO)C=O,559.46,5,"[1, 6, 7, 8]",4,True,CHON,amide
3910,2-acetamidoprop-2-enoic acid,CC(=O)NC(=C)C(=O)O,560.11,5,"[1, 6, 7, 8]",4,True,CHON,carboxylic_acid
3911,4-cyanobutanoic acid,C(CC#N)CC(=O)O,561.59,5,"[1, 6, 7, 8]",4,True,CHON,alcohol
3912,"5,5-dimethylimidazolidine-2,4-dione",CC1(C(=O)NC(=O)N1)C,562.26,5,"[1, 6, 7, 8]",4,True,CHON,amide
3913,2-acetamidopropanoic acid,CC(C(=O)O)NC(=O)C,563.11,5,"[1, 6, 7, 8]",4,True,CHON,carboxylic_acid
3914,"5-methyl-1,3-diazinane-2,4-dione",CC1CNC(=O)NC1=O,566.29,5,"[1, 6, 7, 8]",4,True,CHON,amide
3915,"6-methyl-1,3-diazinane-2,4-dione",CC1CC(=O)NC(=O)N1,566.29,5,"[1, 6, 7, 8]",4,True,CHON,amide
3916,"2,4-dioxopentanoic acid",CC(=O)CC(=O)C(=O)O,567.25,5,"[1, 6, 8]",3,True,CHO,carboxylic_acid
3917,(Z)-4-(methylamino)-4-oxobut-2-enoic acid,CNC(=O)/C=C\C(=O)O,567.71,5,"[1, 6, 7, 8]",4,True,CHON,carboxylic_acid
3918,1-cyanocyclopropane-1-carboxylic acid,C1CC1(C#N)C(=O)O,568.57,5,"[1, 6, 7, 8]",4,True,CHON,alcohol
3919,N-(2-hydroxyethyl)-N-(2-hydroxypropyl)nitrous amide,CC(CN(CCO)N=O)O,573.76,5,"[1, 6, 7, 8]",4,True,CHON,alcohol
3920,methyl 3-[carbamoyl(nitroso)amino]propanoate,COC(=O)CCN(C(=O)N)N=O,574.46,5,"[1, 6, 7, 8]",4,True,CHON,ester
3921,N-(acetylcarbamoyl)acetamide,CC(=O)NC(=O)NC(=O)C,575.95,5,"[1, 6, 7, 8]",4,True,CHON,amide
3922,4-(2-methyliminohydrazinyl)-1H-imidazole-5-carboxamide,CN=NNC1=C(NC=N1)C(=O)N,579.85,5,"[1, 6, 7, 8]",4,True,CHON,aromatic
3923,5-hydroxypentanehydrazide,C(CCO)CC(=O)NN,582.75,5,"[1, 6, 7, 8]",4,True,CHON,alcohol
3924,3-(2-hydroxyethylamino)propanamide,C(CNCCO)C(=O)N,582.75,5,"[1, 6, 7, 8]",4,True,CHON,amide
3925,5-amino-4-oxopentanoic acid,C(CC(=O)O)C(=O)CN,585.91,5,"[1, 6, 7, 8]",4,True,CHON,carboxylic_acid
3926,"2-(hydroxymethyl)butane-1,3-diol",CC(C(CO)CO)O,589.66,5,"[1, 6, 8]",3,True,CHO,alcohol
3927,5-oxopyrrolidine-2-carboxylic acid,C1CC(=O)NC1C(=O)O,591.16,5,"[1, 6, 7, 8]",4,True,CHON,carboxylic_acid
3928,1-carbamoylcyclopropane-1-carboxylic acid,C1CC1(C(=O)N)C(=O)O,592.89,5,"[1, 6, 7, 8]",4,True,CHON,carboxylic_acid
3929,"2,3-dihydroxycyclopent-2-en-1-one",C1CC(=O)C(=C1O)O,595.25,5,"[1, 6, 8]",3,True,CHO,alkene
3930,N-carbamoyl-3-oxobutanamide,CC(=O)CC(=O)NC(=O)N,598.31,5,"[1, 6, 7, 8]",4,True,CHON,amide
3931,2-methylidenebutanedioic acid,C=C(CC(=O)O)C(=O)O,601.0,5,"[1, 6, 8]",3,True,CHO,alkene
3932,"2,2-dimethylpropanedioic acid",CC(C)(C(=O)O)C(=O)O,601.79,5,"[1, 6, 8]",3,True,CHO,alcohol
3933,2-hydroxy-N-(2-hydroxyethyl)propanamide,CC(C(=O)NCCO)O,601.96,5,"[1, 6, 7, 8]",4,True,CHON,alcohol
3934,"1,3-bis(hydroxymethyl)imidazolidin-2-one",C1CN(C(=O)N1CO)CO,602.47,5,"[1, 6, 7, 8]",4,True,CHON,amide
3935,"5-(2-hydroxyethyl)-1,3,5-triazinan-2-one",C1NC(=O)NCN1CCO,603.49,5,"[1, 6, 7, 8]",4,True,CHON,alcohol
3936,"2,5-diaminopentanoic acid",C(CC(C(=O)O)N)CN,604.13,5,"[1, 6, 7, 8]",4,True,CHON,carboxylic_acid
3937,2-hydroxyethyl N-(2-hydroxyethyl)carbamate,C(CO)NC(=O)OCCO,606.75,5,"[1, 6, 7, 8]",4,True,CHON,ester
3938,"cyclopropane-1,2-dicarboxylic acid",C1C(C1C(=O)O)C(=O)O,607.09,5,"[1, 6, 8]",3,True,CHO,alcohol
3939,(E)-2-methylbut-2-enedioic acid,C/C(=C\C(=O)O)/C(=O)O,609.06,5,"[1, 6, 8]",3,True,CHO,alkene
3940,(E)-pent-2-enedioic acid,C(/C=C/C(=O)O)C(=O)O,609.18,5,"[1, 6, 8]",3,True,CHO,alkene
3941,2-(2-cyanoethylamino)acetic acid,C(CNCC(=O)O)C#N,611.76,5,"[1, 6, 7, 8]",4,True,CHON,carboxylic_acid
3942,"cyclopropane-1,1-dicarboxylic acid",C1CC1(C(=O)O)C(=O)O,612.0,5,"[1, 6, 8]",3,True,CHO,alcohol
3943,"3-(2-hydroxyethoxy)propane-1,2-diol",C(COCC(CO)O)O,612.52,5,"[1, 6, 8]",3,True,CHO,ester
3944,2-[carboxymethyl(methyl)amino]acetic acid,CN(CC(=O)O)CC(=O)O,617.46,5,"[1, 6, 7, 8]",4,True,CHON,carboxylic_acid
3945,4-[cyano(nitroso)amino]butanamide,C(CC(=O)N)CN(C#N)N=O,618.32,5,"[1, 6, 7, 8]",4,True,CHON,amide
3946,"ethene-1,1,2-tricarbonitrile",C(=C(C#N)C#N)C#N,624.28,5,"[1, 6, 7]",3,True,CHN,alkene
3947,2-(2-aminoethylamino)ethylcarbamic acid,C(CNCCNC(=O)O)N,632.38,5,"[1, 6, 7, 8]",4,True,CHON,carboxylic_acid
3948,2-[(2-aminoacetyl)amino]propanoic acid,CC(C(=O)O)NC(=O)CN,635.64,5,"[1, 6, 7, 8]",4,True,CHON,carboxylic_acid
3949,2-(2-aminopropanoylamino)acetic acid,CC(C(=O)NCC(=O)O)N,635.64,5,"[1, 6, 7, 8]",4,True,CHON,carboxylic_acid
3950,2-(3-aminopropanoylamino)acetic acid,C(CN)C(=O)NCC(=O)O,636.08,5,"[1, 6, 7, 8]",4,True,CHON,carboxylic_acid
3951,3-hydroxy-2-(hydroxymethyl)-2-methylpropanoic acid,CC(CO)(CO)C(=O)O,640.64,5,"[1, 6, 8]",3,True,CHO,alcohol
3952,ethyl (2E)-2-cyano-2-hydroxyiminoacetate,CCOC(=O)/C(=N/O)/C#N,643.04,5,"[1, 6, 7, 8]",4,True,CHON,ester
3953,2-hydroxyethyl propanoate,CCC(=O)OCCO,645.27,5,"[1, 6, 8]",3,True,CHO,ester
3954,2-hydroxy-2-(prop-2-enoylamino)acetic acid,C=CC(=O)NC(C(=O)O)O,651.97,5,"[1, 6, 7, 8]",4,True,CHON,carboxylic_acid
3955,"1,3-bis(2-hydroxyethyl)urea",C(CO)NC(=O)NCCO,652.57,5,"[1, 6, 7, 8]",4,True,CHON,alcohol