,Name,SMILES,Tb,C Atom,Atom,Count Unique Atom,Pass Screen,Atom2,Func. Group
1012,3-Octanol,CCCCCC(CC)O,444.15,8,"[1, 6, 8]",3,True,CHO,alcohol
1013,4-Acetyl-1-Methylcyclohexene,CC1=CCC(CC1)C(=O)C,444.15,9,"[1, 6, 8]",3,True,CHO,alkene
1014,"4-Heptanol, 2,4-Dimethyl-",CCCC(C)(CC(C)C)O,444.15,9,"[1, 6, 8]",3,True,CHO,alcohol
1015,"Propane, 1,1,1-Triethoxy-",CCC(OCC)(OCC)OCC,444.15,9,"[1, 6, 8]",3,True,CHO,ester
1016,"2-Propanol, 1-Butoxy-",CCCCOCC(C)O,444.65,7,"[1, 6, 8]",3,True,CHO,ester
1017,N-Hexyl Acetate,CCCCCCOC(=O)C,444.65,8,"[1, 6, 8]",3,True,CHO,ester
1018,Methyl Acetoacetate,CC(=O)CC(=O)OC,444.84999999999997,5,"[1, 6, 8]",3,True,CHO,ester
1019,4-Methylcyclohexanol,CC1CCC(CC1)O,445.15,7,"[1, 6, 8]",3,True,CHO,alcohol
1020,"Cyclohexanone, 2,2-Dimethyl-",CC1(CCCCC1=O)C,445.15,8,"[1, 6, 8]",3,True,CHO,ketone
1021,"3-Heptanol, 5-Methyl-",CCC(C)CC(CC)O,445.15,8,"[1, 6, 8]",3,True,CHO,alcohol
1022,Diisopentyl Ether,CC(C)CCOCCC(C)C,445.65,10,"[1, 6, 8]",3,True,CHO,ester
1023,"1,3-Benzodioxole",C1OC2=CC=CC=C2O1,445.65,7,"[1, 6, 8]",3,True,CHO,ester
1024,2-Octanone,CCCCCCC(=O)C,445.65,8,"[1, 6, 8]",3,True,CHO,ketone
1025,"1-Hexanol, 2,2-Dimethyl-",CCCCC(C)(C)CO,445.65,8,"[1, 6, 8]",3,True,CHO,alcohol
1026,"1-Butanol, 3-Methoxy-3-Methyl-",CC(C)(CCO)OC,446.15,6,"[1, 6, 8]",3,True,CHO,ester
1027,"3,3-Dimethyl-Pentane-2,4-Dione",CC(=O)C(C)(C)C(=O)C,446.15,7,"[1, 6, 8]",3,True,CHO,ketone
1028,Cyclohexyl Acetate,CC(=O)OC1CCCCC1,446.15,8,"[1, 6, 8]",3,True,CHO,ester
1029,"Pentanoic Acid, 4-Methyl-3-Oxo-, Ethyl Ester",CCOC(=O)CC(=O)C(C)C,446.15,8,"[1, 6, 8]",3,True,CHO,ester
1030,"Hexanal, 3,5,5-Trimethyl-",CC(CC=O)CC(C)(C)C,446.15,9,"[1, 6, 8]",3,True,CHO,aldehyde
1031,"3-Heptanol, 3,6-Dimethyl-",CCC(C)(CCC(C)C)O,446.15,9,"[1, 6, 8]",3,True,CHO,alcohol
1032,"2-Heptanol, 2,6-Dimethyl-",CC(C)CCCC(C)(C)O,446.15,9,"[1, 6, 8]",3,True,CHO,alcohol
1033,"1,4-Cineol",CC(C)C12CCC(O1)(CC2)C,446.65,10,"[1, 6, 8]",3,True,CHO,ester
1034,"5-Hepten-2-One, 6-Methyl-",CC(=CCCC(=O)C)C,446.65,8,"[1, 6, 8]",3,True,CHO,alkene
1035,"1,2-Ethanediol, Diformate",C(COC=O)OC=O,447.15,4,"[1, 6, 8]",3,True,CHO,ester
1036,"Propanedioic Acid, Methyl-, Dimethyl Ester",CC(C(=O)OC)C(=O)OC,447.15,6,"[1, 6, 8]",3,True,CHO,ester
1037,"2,4-Hexadienal",C/C=C/C=C/C=O,447.15,6,"[1, 6, 8]",3,True,CHO,alkene
1038,2-Ethoxyethyl Acrylate,CCOCCOC(=O)C=C,447.15,7,"[1, 6, 8]",3,True,CHO,ester
1039,1-Ethynyl Cyclohexanol,C#CC1(CCCCC1)O,447.15,8,"[1, 6, 8]",3,True,CHO,alkyne
1040,Methyl Heptanoate,CCCCCCC(=O)OC,447.15,8,"[1, 6, 8]",3,True,CHO,ester
1041,6-Methyl-2-Heptanol,CC(C)CCCC(C)O,447.15,8,"[1, 6, 8]",3,True,CHO,alcohol
1042,Benzofuran,C1=CC=C2C(=C1)C=CO2,447.15,8,"[1, 6, 8]",3,True,CHO,aromatic
1043,Pinacol,CC(C)(C(C)(C)O)O,447.54999999999995,6,"[1, 6, 8]",3,True,CHO,alcohol
1044,"2-Hexenoic Acid, Ethyl Ester",CCC/C=C/C(=O)OCC,447.65,8,"[1, 6, 8]",3,True,CHO,ester
1045,"2,6-Dimethyl-4-Heptanol",CC(C)CC(CC(C)C)O,447.65,9,"[1, 6, 8]",3,True,CHO,alcohol
1046,"2-Methyl-Butane-2,3-Diol",CC(C(C)(C)O)O,448.15,5,"[1, 6, 8]",3,True,CHO,alcohol
1047,2-Acetylfuran,CC(=O)C1=CC=CO1,448.15,6,"[1, 6, 8]",3,True,CHO,aromatic
1048,"Cyclohexanone, 2,6-Dimethyl-",CC1CCCC(C1=O)C,448.15,8,"[1, 6, 8]",3,True,CHO,ketone
1049,2-Octen-4-Ol,CCCCC(/C=C/C)O,448.15,8,"[1, 6, 8]",3,True,CHO,alkene
1050,"5-Hepten-2-Ol, 6-Methyl-",CC(CCC=C(C)C)O,448.15,8,"[1, 6, 8]",3,True,CHO,alkene
1051,4-Octanol,CCCCC(CCC)O,448.15,8,"[1, 6, 8]",3,True,CHO,alcohol
1052,"2,6-Dimethyl-3-Heptanol",CC(C)CCC(C(C)C)O,448.15,9,"[1, 6, 8]",3,True,CHO,alcohol
1053,Tripropionin,CCC(=O)OCC(COC(=O)CC)OC(=O)CC,448.65,12,"[1, 6, 8]",3,True,CHO,ester
1054,M-Methylanisole,CC1=CC(=CC=C1)OC,448.65,8,"[1, 6, 8]",3,True,CHO,ester
1055,P-Methylanisole,CC1=CC=C(C=C1)OC,448.65,8,"[1, 6, 8]",3,True,CHO,ester
1056,"2-Methyl-Propane-1,2-Diol",CC(C)(CO)O,449.15,4,"[1, 6, 8]",3,True,CHO,alcohol
1057,"2,6-Dimethylcyclohexanol",CC1CCCC(C1O)C,449.15,8,"[1, 6, 8]",3,True,CHO,alcohol
1058,"1,8-Cineole",CC1(C2CCC(O1)(CC2)C)C,449.54999999999995,10,"[1, 6, 8]",3,True,CHO,ester
1059,1-Heptanol,CCCCCCCO,449.54999999999995,7,"[1, 6, 8]",3,True,CHO,alcohol
1060,"Butanoic Acid, 2-Methyl-",CCC(C)C(=O)O,449.65,5,"[1, 6, 8]",3,True,CHO,alcohol
1061,Isovaleric Acid,CC(C)CC(=O)O,449.65,5,"[1, 6, 8]",3,True,CHO,alcohol
1062,Exo-Norborneol,C1CC2CC1CC2O,449.65,7,"[1, 6, 8]",3,True,CHO,alcohol
1063,Isopropoxybenzene,CC(C)OC1=CC=CC=C1,449.95,9,"[1, 6, 8]",3,True,CHO,ester
1064,4-Hydroxy-2-Pentanone,CC(CC(=O)C)O,450.15,5,"[1, 6, 8]",3,True,CHO,alcohol
1065,"Cyclohexanol, 2,2-Dimethyl-",CC1(CCCCC1O)C,450.15,8,"[1, 6, 8]",3,True,CHO,alcohol
1066,"3-Octen-2-Ol, 2-Methyl-, (z)-",CCCC/C=C\C(C)(C)O,450.15,9,"[1, 6, 8]",3,True,CHO,alkene
1067,"Butanoic Acid, 2-Methyl-3-Oxo-, Methyl Ester",CC(C(=O)C)C(=O)OC,450.54999999999995,6,"[1, 6, 8]",3,True,CHO,ester
1068,2-Naphthalenemethanol,C1=CC=C2C=C(C=CC2=C1)CO,451.15,11,"[1, 6, 8]",3,True,CHO,aromatic
1069,Tetrahydrofurfuryl Alcohol,C1CC(OC1)CO,451.15,5,"[1, 6, 8]",3,True,CHO,ester
1070,"2-Hepten-1-Ol, (z)-",CCCC/C=C\CO,451.15,7,"[1, 6, 8]",3,True,CHO,alkene
1071,"2-Hepten-1-Ol, (e)-",CCCC/C=C/CO,451.15,7,"[1, 6, 8]",3,True,CHO,alkene
1072,"4-Octanone, 7-Methyl-",CCCC(=O)CCC(C)C,451.15,9,"[1, 6, 8]",3,True,CHO,ketone
1073,"2-Octanol, 2-Methyl-",CCCCCCC(C)(C)O,451.15,9,"[1, 6, 8]",3,True,CHO,alcohol
1074,"Formic Acid, Heptyl Ester",CCCCCCCOC=O,451.25,8,"[1, 6, 8]",3,True,CHO,ester
1075,Cycloheptanone,C1CCCC(=O)CC1,451.65,7,"[1, 6, 8]",3,True,CHO,ketone
1076,"2,4-Pentanedione, 3-Ethyl-",CCC(C(=O)C)C(=O)C,451.65,7,"[1, 6, 8]",3,True,CHO,ketone
1077,2-Octanol,CCCCCCC(C)O,451.65,8,"[1, 6, 8]",3,True,CHO,alcohol
1078,"Cyclohexanone, 2,2,6-Trimethyl-",CC1CCCC(C1=O)(C)C,451.65,9,"[1, 6, 8]",3,True,CHO,ketone
1079,"Propanoic Acid, 3-Hydroxy-, Methyl Ester",COC(=O)CCO,452.15,4,"[1, 6, 8]",3,True,CHO,ester
1080,2-Oxo-Pentanoic Acid,CCCC(=O)C(=O)O,452.15,5,"[1, 6, 8]",3,True,CHO,carboxylic_acid
1081,"2-Furanmethanol, Acetate",CC(=O)OCC1=CC=CO1,452.15,7,"[1, 6, 8]",3,True,CHO,ester
1082,Isovanillin,COC1=C(C=C(C=C1)C=O)O,452.15,8,"[1, 6, 8]",3,True,CHO,ester
1083,"Pentanoic Acid, 2-Methylpropyl Ester",CCCCC(=O)OCC(C)C,452.15,9,"[1, 6, 8]",3,True,CHO,ester
1084,"Butanoic Acid, 2-Methyl-, Butyl Ester",CCCCOC(=O)C(C)CC,452.15,9,"[1, 6, 8]",3,True,CHO,ester
1085,Isopentyl Butanoate,CCCC(=O)OCCC(C)C,452.15,9,"[1, 6, 8]",3,True,CHO,ester
1086,Benzaldehyde,C1=CC=C(C=C1)C=O,452.15,7,"[1, 6, 8]",3,True,CHO,aromatic
1087,"2-Propanone, 1-(2-Furanyl)-",CC(=O)CC1=CC=CO1,452.65,7,"[1, 6, 8]",3,True,CHO,aromatic
1088,Ethylmalonic Acid,CCC(C(=O)O)C(=O)O,453.15,5,"[1, 6, 8]",3,True,CHO,alcohol
1089,"2,4-Hexadienoic Acid, Methyl Ester, (e,e)-",C/C=C/C=C/C(=O)OC,453.15,7,"[1, 6, 8]",3,True,CHO,ester
1090,Allylidenediacetate,CC(=O)OC(C=C)OC(=O)C,453.15,7,"[1, 6, 8]",3,True,CHO,ester
1091,"Cyclohexanone, 3,3-Dimethyl-",CC1(CCCC(=O)C1)C,453.15,8,"[1, 6, 8]",3,True,CHO,ketone
1092,"Hexanoic Acid, 4-Methyl-, Ethyl Ester",CCC(C)CCC(=O)OCC,453.15,9,"[1, 6, 8]",3,True,CHO,ester
1093,"4-Octanol, 4-Methyl-",CCCCC(C)(CCC)O,453.15,9,"[1, 6, 8]",3,True,CHO,alcohol
1094,"Ethanone, 1-Cyclohexyl-",CC(=O)C1CCCCC1,453.65,8,"[1, 6, 8]",3,True,CHO,ketone
1095,Acetoacetic Ester,CCOC(=O)CC(=O)C,453.95,6,"[1, 6, 8]",3,True,CHO,ester
1096,"3-Furanol, Tetrahydro-",C1COCC1O,454.15,4,"[1, 6, 8]",3,True,CHO,ester
1097,"Furoic Acid, Methyl Ester",COC(=O)C1=CC=CO1,454.45,6,"[1, 6, 8]",3,True,CHO,ester
1098,"Propanedioic Acid, Dimethyl Ester",COC(=O)CC(=O)OC,454.54999999999995,5,"[1, 6, 8]",3,True,CHO,ester
1099,Phenol,C1=CC=C(C=C1)O,454.95,6,"[1, 6, 8]",3,True,CHO,aromatic
1100,"2,3-Butanediol",CC(C(C)O)O,455.15,4,"[1, 6, 8]",3,True,CHO,alcohol
1101,"Butanoic Acid, 2-Ethyl-3-Oxo-, Methyl Ester",CCC(C(=O)C)C(=O)OC,455.15,7,"[1, 6, 8]",3,True,CHO,ester
1102,"2,2-Dimethyl-3-Oxo-Butyric Acid Ethyl Ester",CCOC(=O)C(C)(C)C(=O)C,455.15,8,"[1, 6, 8]",3,True,CHO,ester
1103,"4-Heptanol, 4-Ethyl-",CCCC(CC)(CCC)O,455.15,9,"[1, 6, 8]",3,True,CHO,alcohol
1104,2-Oxo-Pentanoic Acid Ethyl Ester,CCCC(=O)C(=O)OCC,455.65,7,"[1, 6, 8]",3,True,CHO,ester
1105,"2,6-Dimethylanisole",CC1=C(C(=CC=C1)C)OC,455.65,9,"[1, 6, 8]",3,True,CHO,ester
1106,Cyclopropanecarboxylic Acid,C1CC1C(=O)O,456.15,4,"[1, 6, 8]",3,True,CHO,alcohol
1107,Cyclohexanemethanol,C1CCC(CC1)CO,456.15,7,"[1, 6, 8]",3,True,CHO,alcohol
1108,2-Hydroxyethylcyclopentane,C1CCC(C1)CCO,456.15,7,"[1, 6, 8]",3,True,CHO,alcohol
1109,"Propane, 1,1,3,3-Tetramethoxy-",COC(CC(OC)OC)OC,456.15,7,"[1, 6, 8]",3,True,CHO,ester
1110,"Cyclohexanecarboxylic Acid, Methyl Ester",COC(=O)C1CCCCC1,456.15,8,"[1, 6, 8]",3,True,CHO,ester
1111,"Propanoic Acid, 2-Methyl-, Anhydride",CC(C)C(=O)OC(=O)C(C)C,456.15,8,"[1, 6, 8]",3,True,CHO,ether
1112,"Benzene, 1-Ethoxy-2-Methyl-",CCOC1=CC=CC=C1C,457.15,9,"[1, 6, 8]",3,True,CHO,ester
1113,2-Ethyl-1-Hexanol,CCCCC(CC)CO,457.75,8,"[1, 6, 8]",3,True,CHO,alcohol
1114,Crotonic Acid,C/C=C/C(=O)O,457.84999999999997,4,"[1, 6, 8]",3,True,CHO,alkene
1115,Alpha-Pinene Oxide,CC1(C2CC1C3(C(C2)O3)C)C,458.15,10,"[1, 6, 8]",3,True,CHO,ester
1116,Dodecanal,CCCCCCCCCCCC=O,458.15,12,"[1, 6, 8]",3,True,CHO,aldehyde
1117,"3-Butenoic Acid, 2,2-Dimethyl-",CC(C)(C=C)C(=O)O,458.15,6,"[1, 6, 8]",3,True,CHO,alkene
1118,Tetrahydropyran-2-Methanol,C1CCOC(C1)CO,458.15,6,"[1, 6, 8]",3,True,CHO,ester
1119,"Butanoic Acid, 3-Hydroxy-, Ethyl Ester",CCOC(=O)CC(C)O,458.15,6,"[1, 6, 8]",3,True,CHO,ester
1120,Cycloheptanol,C1CCCC(CC1)O,458.15,7,"[1, 6, 8]",3,True,CHO,alcohol
1121,"Cycloheptanone, 2-Methyl-",CC1CCCCCC1=O,458.15,8,"[1, 6, 8]",3,True,CHO,ketone
1122,"Cyclohexanol, 3,3-Dimethyl-",CC1(CCCC(C1)O)C,458.15,8,"[1, 6, 8]",3,True,CHO,alcohol
1123,"Propane, 1,3,3-Triethoxy-",CCOCCC(OCC)OCC,458.15,9,"[1, 6, 8]",3,True,CHO,ester
1124,"Furan, 3-(4-Methyl-3-Pentenyl)-",CC(=CCCC1=COC=C1)C,458.65,10,"[1, 6, 8]",3,True,CHO,alkene
1125,"Benzene, (1,1-Dimethylethoxy)-",CC(C)(C)OC1=CC=CC=C1,458.65,10,"[1, 6, 8]",3,True,CHO,ester
1126,Ethyl Oxalate,CCOC(=O)C(=O)OCC,458.84999999999997,6,"[1, 6, 8]",3,True,CHO,ester
1127,"Pentanoic Acid, Butyl Ester",CCCCC(=O)OCCCC,458.95,9,"[1, 6, 8]",3,True,CHO,ester
1128,"Butanoic Acid, 3-Oxo-, 1-Methylethyl Ester",CC(C)OC(=O)CC(=O)C,459.15,7,"[1, 6, 8]",3,True,CHO,ester
1129,Butyl Lactate,CCCCOC(=O)C(C)O,459.15,7,"[1, 6, 8]",3,True,CHO,ester
1130,Benzyl Ethyl Ether,CCOCC1=CC=CC=C1,459.15,9,"[1, 6, 8]",3,True,CHO,ester
1131,Allyl Caproate,CCCCCC(=O)OCC=C,459.15,9,"[1, 6, 8]",3,True,CHO,ester
1132,"3,5-Dimethyl-4-Heptanol",CCC(C)C(C(C)CC)O,459.15,9,"[1, 6, 8]",3,True,CHO,alcohol
1133,Pentanoic Acid,CCCCC(=O)O,459.25,5,"[1, 6, 8]",3,True,CHO,alcohol
1134,Pentyl Butyrate,CCCCCOC(=O)CCC,459.54999999999995,9,"[1, 6, 8]",3,True,CHO,ester
1135,"2-Furancarboxaldehyde, 5-Methyl-",CC1=CC=C(O1)C=O,460.15,6,"[1, 6, 8]",3,True,CHO,aromatic
1136,"Butanoic Acid, 2-Methyl-3-Oxo-, Ethyl Ester",CCOC(=O)C(C)C(=O)C,460.15,7,"[1, 6, 8]",3,True,CHO,ester
1137,"3,5-Dimethylcyclohexanol",CC1CC(CC(C1)O)C,460.15,8,"[1, 6, 8]",3,True,CHO,alcohol
1138,2-Ethylanisole,CCC1=CC=CC=C1OC,460.15,9,"[1, 6, 8]",3,True,CHO,ester
1139,Ethyl Heptanoate,CCCCCCC(=O)OCC,460.15,9,"[1, 6, 8]",3,True,CHO,ester
1140,Propyl Hexanoate,CCCCCC(=O)OCCC,460.15,9,"[1, 6, 8]",3,True,CHO,ester
1141,"2-Butanone, 4-(4-Hydroxy-3-Methoxyphenyl)-",CC(=O)CCC1=CC(=C(C=C1)O)OC,460.65,11,"[1, 6, 8]",3,True,CHO,ester
1142,"Pentane-2,3-Diol",CCC(C(C)O)O,460.65,5,"[1, 6, 8]",3,True,CHO,alcohol
1143,4-Nonanone,CCCCCC(=O)CCC,460.65,9,"[1, 6, 8]",3,True,CHO,ketone
1144,"1,2-Propanediol",CC(CO)O,460.75,3,"[1, 6, 8]",3,True,CHO,alcohol
1145,"1,2-Ethanediol, Monoacetate",CC(=O)OCCO,461.15,4,"[1, 6, 8]",3,True,CHO,ester
1146,Isooctyl Alcohol,CC(C)CCCCCO,461.15,8,"[1, 6, 8]",3,True,CHO,alcohol
1147,"Pentane-1,5-Dial",C(CC=O)CC=O,461.15,5,"[1, 6, 8]",3,True,CHO,aldehyde
1148,Dipropylene Glycol Methyl Ether,CC(CO)OCC(C)OC,461.45,7,"[1, 6, 8]",3,True,CHO,ester
1149,5-Nonanone,CCCCC(=O)CCCC,461.54999999999995,9,"[1, 6, 8]",3,True,CHO,ketone
1150,4-Pentenoic Acid,C=CCCC(=O)O,461.65,5,"[1, 6, 8]",3,True,CHO,alkene
1151,"2,3-Dihydrobenzofuran",C1COC2=CC=CC=C21,461.65,8,"[1, 6, 8]",3,True,CHO,ester
1152,"Benzene, 1-Ethoxy-4-Methyl-",CCOC1=CC=C(C=C1)C,461.65,9,"[1, 6, 8]",3,True,CHO,ester
1153,"Butanoic Acid, 3,3-Dimethyl-2-Oxo-",CC(C)(C)C(=O)C(=O)O,462.15,6,"[1, 6, 8]",3,True,CHO,carboxylic_acid
1154,Glycidyl Methacrylate,CC(=C)C(=O)OCC1CO1,462.15,7,"[1, 6, 8]",3,True,CHO,ester
1155,"Cyclohexanemethanol, .alpha.-Methyl-",CC(C1CCCCC1)O,462.15,8,"[1, 6, 8]",3,True,CHO,alcohol
1156,"Cyclohexanone, 3,3,5-Trimethyl-",CC1CC(=O)CC(C1)(C)C,462.15,9,"[1, 6, 8]",3,True,CHO,ketone
1157,Phenylpropyl Ether,CCCOC1=CC=CC=C1,463.04999999999995,9,"[1, 6, 8]",3,True,CHO,ester
1158,"3-Hepten-2-One, 3-Ethyl-4-Methyl-",CCCC(=C(CC)C(=O)C)C,463.15,10,"[1, 6, 8]",3,True,CHO,alkene
1159,5-Phenylpentanoic Acid,C1=CC=C(C=C1)CCCCC(=O)O,463.15,11,"[1, 6, 8]",3,True,CHO,aromatic
1160,Cyclobutanecarboxylic Acid,C1CC(C1)C(=O)O,463.15,5,"[1, 6, 8]",3,True,CHO,alcohol
1161,Ethylene Glycol Diacetate,CC(=O)OCCOC(=O)C,463.15,6,"[1, 6, 8]",3,True,CHO,ester
1162,"Butanoic Acid, 3,3-Dimethyl-",CC(C)(C)CC(=O)O,463.15,6,"[1, 6, 8]",3,True,CHO,alcohol
1163,M-Hydroxyphenylacetic Acid,C1=CC(=CC(=C1)O)CC(=O)O,463.15,8,"[1, 6, 8]",3,True,CHO,carboxylic_acid
1164,2-(butoxymethyl)furan,CCCCOCC1=CC=CO1,463.15,9,"[1, 6, 8]",3,True,CHO,ester
1165,3-Nonanone,CCCCCCC(=O)CC,463.15,9,"[1, 6, 8]",3,True,CHO,ketone
1166,"Propanoic Acid, Hexyl Ester",CCCCCCOC(=O)CC,463.15,9,"[1, 6, 8]",3,True,CHO,ester
1167,"Carbonic Acid, Bis(2-Methylpropyl) Ester",CC(C)COC(=O)OCC(C)C,463.15,9,"[1, 6, 8]",3,True,CHO,ester
1168,Isoamyl Isovalerate,CC(C)CCOC(=O)CC(C)C,463.54999999999995,10,"[1, 6, 8]",3,True,CHO,ester
1169,"1,2-Propylene Glycol Diacetate",CC(COC(=O)C)OC(=O)C,463.65,7,"[1, 6, 8]",3,True,CHO,ester
1170,"Benzofuran, 7-Methyl-",CC1=C2C(=CC=C1)C=CO2,463.65,9,"[1, 6, 8]",3,True,CHO,aromatic
1171,2-Methylcyclopropanecarboxylic Acid,CC1CC1C(=O)O,464.15,5,"[1, 6, 8]",3,True,CHO,alcohol
1172,2-Hydroxyethyl Acrylate,C=CC(=O)OCCO,464.15,5,"[1, 6, 8]",3,True,CHO,ester
1173,3-Oxo-Pentanoic Acid Ethyl Ester,CCC(=O)CC(=O)OCC,464.15,7,"[1, 6, 8]",3,True,CHO,ester
1174,"2-Propene-1,1-Diol, 2-Methyl-, Diacetate",CC(=C)C(OC(=O)C)OC(=O)C,464.15,8,"[1, 6, 8]",3,True,CHO,ester
1175,Oxalic Acid Diisopropyl Ester,CC(C)OC(=O)C(=O)OC(C)C,464.15,8,"[1, 6, 8]",3,True,CHO,ester
1176,"Cyclohexanone, 2,4,4-Trimethyl-",CC1CC(CCC1=O)(C)C,464.15,9,"[1, 6, 8]",3,True,CHO,ketone
1177,Nonanal,CCCCCCCCC=O,464.15,9,"[1, 6, 8]",3,True,CHO,aldehyde
1178,O-Cresol,CC1=CC=CC=C1O,464.15,7,"[1, 6, 8]",3,True,CHO,aromatic
1179,"Furan, 2-(diethoxymethyl)-",CCOC(C1=CC=CO1)OCC,464.65,9,"[1, 6, 8]",3,True,CHO,ester
1180,"2,3-Dimethylbutyric Acid",CC(C)C(C)C(=O)O,464.84999999999997,6,"[1, 6, 8]",3,True,CHO,alcohol
1181,Allylphenyl Ether,C=CCOC1=CC=CC=C1,464.84999999999997,9,"[1, 6, 8]",3,True,CHO,ester
1182,2-Butoxyethanol Acetate,CCCCOCCOC(=O)C,465.15,8,"[1, 6, 8]",3,True,CHO,ester
1183,Phthalan,C1C2=CC=CC=C2CO1,465.15,8,"[1, 6, 8]",3,True,CHO,ester
1184,"1-Methoxy-2,4-Dimethyl-Benzene",CC1=CC(=C(C=C1)OC)C,465.15,9,"[1, 6, 8]",3,True,CHO,ester
1185,"Benzene, 1-Ethoxy-3-Methyl-",CCOC1=CC=CC(=C1)C,465.15,9,"[1, 6, 8]",3,True,CHO,ester
1186,Methyl Octanoate,CCCCCCCC(=O)OC,466.04999999999995,9,"[1, 6, 8]",3,True,CHO,ester
1187,Trimethylacetic Anhydride,CC(C)(C)C(=O)OC(=O)C(C)(C)C,466.15,10,"[1, 6, 8]",3,True,CHO,ether
1188,Diethylene Glycol Monomethyl Ether,COCCOCCO,466.15,5,"[1, 6, 8]",3,True,CHO,ester
1189,"2-Butenedioic Acid (e)-, Dimethyl Ester",COC(=O)/C=C/C(=O)OC,466.15,6,"[1, 6, 8]",3,True,CHO,ester
1190,"2-Furanmethanol, Tetrahydro-, Acetate",CC(=O)OCC1CCCO1,466.15,7,"[1, 6, 8]",3,True,CHO,ester
1191,"Cyclohexanone, 4-Ethyl-",CCC1CCC(=O)CC1,466.15,8,"[1, 6, 8]",3,True,CHO,ketone
1192,Propionic Acid Cyclohexyl Ester,CCC(=O)OC1CCCCC1,466.15,9,"[1, 6, 8]",3,True,CHO,ester
1193,"Acetic Acid, Heptyl Ester",CCCCCCCOC(=O)C,466.15,9,"[1, 6, 8]",3,True,CHO,ester
1194,5-Nonanol,CCCCC(CCCC)O,466.15,9,"[1, 6, 8]",3,True,CHO,alcohol
1195,1-Nonen-3-Ol,CCCCCCC(C=C)O,466.65,9,"[1, 6, 8]",3,True,CHO,alkene
1196,2-Nonanol,CCCCCCCC(C)O,466.65,9,"[1, 6, 8]",3,True,CHO,alcohol
1197,"1,2-Butanediol",CCC(CO)O,467.15,4,"[1, 6, 8]",3,True,CHO,alcohol
1198,"2,5-Hexanedione",CC(=O)CCC(=O)C,467.15,6,"[1, 6, 8]",3,True,CHO,ketone
1199,2-Ethylbutyric Acid,CCC(CC)C(=O)O,467.15,6,"[1, 6, 8]",3,True,CHO,alcohol
1200,"1,2-Cyclohexanedione",C1CCC(=O)C(=O)C1,467.15,6,"[1, 6, 8]",3,True,CHO,ketone
1201,"3,5-Dimethylanisole",CC1=CC(=CC(=C1)OC)C,467.15,9,"[1, 6, 8]",3,True,CHO,ester
1202,Isononyl Alcohol,CC(C)CCCCCCO,467.15,9,"[1, 6, 8]",3,True,CHO,alcohol
1203,Styrene Oxide,C1C(O1)C2=CC=CC=C2,467.25,8,"[1, 6, 8]",3,True,CHO,ester
1204,"Benzene, (1-Methylpropoxy)-",CCC(C)OC1=CC=CC=C1,467.65,10,"[1, 6, 8]",3,True,CHO,ester
1205,"3-Cyclohexene-1-Carboxylic Acid, Ethyl Ester",CCOC(=O)C1CCC=CC1,467.65,9,"[1, 6, 8]",3,True,CHO,ester
1206,"1,3-Propanediol, 2-Methyl-",CC(CO)CO,468.15,4,"[1, 6, 8]",3,True,CHO,alcohol
1207,"2-Furanmethanol, Propanoate",CCC(=O)OCC1=CC=CO1,468.15,8,"[1, 6, 8]",3,True,CHO,ester
1208,2-Ethyl-2-Hexenal,CCC/C=C(\CC)/C=O,468.15,8,"[1, 6, 8]",3,True,CHO,alkene
1209,Phenylacetaldehyde,C1=CC=C(C=C1)CC=O,468.15,8,"[1, 6, 8]",3,True,CHO,aromatic
1210,Tetrahydrophthalic Anhydride,C1C=CCC2C1C(=O)OC2=O,468.15,8,"[1, 6, 8]",3,True,CHO,alkene
1211,1-Octanol,CCCCCCCCO,468.25,8,"[1, 6, 8]",3,True,CHO,alcohol
1212,2-Nonanone,CCCCCCCC(=O)C,468.45,9,"[1, 6, 8]",3,True,CHO,ketone
1213,"2,4-Hexadienoic Acid, Ethyl Ester",CCOC(=O)/C=C/C=C/C,468.65,8,"[1, 6, 8]",3,True,CHO,ester
1214,"1-Pentanone, 1-(3-Furanyl)-4-Methyl-",CC(C)CCC(=O)C1=COC=C1,469.15,10,"[1, 6, 8]",3,True,CHO,aromatic
1215,Etoglucid,C1C(O1)COCCOCCOCCOCC2CO2,469.15,12,"[1, 6, 8]",3,True,CHO,ester
1216,"Pentanoic Acid, 4-Oxo-, Methyl Ester",CC(=O)CCC(=O)OC,469.15,6,"[1, 6, 8]",3,True,CHO,ester
1217,Diethylene Glycol Monoethyl Ether,CCOCCOCCO,469.15,6,"[1, 6, 8]",3,True,CHO,ester
1218,"Butanoic Acid, 3-Oxo-, 2-Propenyl Ester",CC(=O)CC(=O)OCC=C,469.15,7,"[1, 6, 8]",3,True,CHO,ester
1219,"3-Methyl-Hexane-2,5-Dione",CC(CC(=O)C)C(=O)C,469.15,7,"[1, 6, 8]",3,True,CHO,ketone
1220,"Butanedioic Acid, Methyl-, Dimethyl Ester",CC(CC(=O)OC)C(=O)OC,469.15,7,"[1, 6, 8]",3,True,CHO,ester
1221,Cyclooctanone,C1CCCC(=O)CCC1,469.15,8,"[1, 6, 8]",3,True,CHO,ketone
1222,Phenyl Acetate,CC(=O)OC1=CC=CC=C1,469.15,8,"[1, 6, 8]",3,True,CHO,ester
1223,1-Cyclohexyl-Propan-1-One,CCC(=O)C1CCCCC1,469.15,9,"[1, 6, 8]",3,True,CHO,ketone
1224,"Cyclohexanecarboxylic Acid, Ethyl Ester",CCOC(=O)C1CCCCC1,469.15,9,"[1, 6, 8]",3,True,CHO,ester
1225,Dimethyl Succinate,COC(=O)CCC(=O)OC,469.54999999999995,6,"[1, 6, 8]",3,True,CHO,ester
1226,"3-Butene-1,2-Diol",C=CC(CO)O,469.65,4,"[1, 6, 8]",3,True,CHO,alkene
1227,"Pentanoic Acid, 2-Methyl-",CCCC(C)C(=O)O,469.65,6,"[1, 6, 8]",3,True,CHO,alcohol
1228,"Furoic Acid, Ethyl Ester",CCOC(=O)C1=CC=CO1,469.95,7,"[1, 6, 8]",3,True,CHO,ester
1229,"2-Butenoic Acid, 3-Methyl-",CC(=CC(=O)O)C,470.15,5,"[1, 6, 8]",3,True,CHO,alkene
1230,O-Hydroxybenzaldehyde,C1=CC=C(C(=C1)C=O)O,470.15,7,"[1, 6, 8]",3,True,CHO,aldehyde
1231,4-Methylcyclohexane Methanol,CC1CCC(CC1)CO,470.15,8,"[1, 6, 8]",3,True,CHO,alcohol
1232,"Benzene, 1-Ethenyl-2-Methoxy-",COC1=CC=CC=C1C=C,470.15,9,"[1, 6, 8]",3,True,CHO,ester
1233,"Cyclohexanone, 2-Propyl-",CCCC1CCCCC1=O,470.15,9,"[1, 6, 8]",3,True,CHO,ketone
1234,"Propanedioic Acid, Dimethyl-, Diethyl Ester",CCOC(=O)C(C)(C)C(=O)OCC,470.15,9,"[1, 6, 8]",3,True,CHO,ester
1235,3-Methyl-Benzofuran,CC1=COC2=CC=CC=C12,470.15,9,"[1, 6, 8]",3,True,CHO,aromatic
1236,Ethylene Glycol,C(CO)O,470.45,2,"[1, 6, 8]",3,True,CHO,alcohol
1237,"Benzene, (2-Methylpropoxy)-",CC(C)COC1=CC=CC=C1,470.65,10,"[1, 6, 8]",3,True,CHO,ester
1238,"Benzofuran, 2,3-Dihydro-2-Methyl-",CC1CC2=CC=CC=C2O1,470.65,9,"[1, 6, 8]",3,True,CHO,ester
1239,Phorone,CC(=CC(=O)C=C(C)C)C,470.65,9,"[1, 6, 8]",3,True,CHO,alkene
1240,2-Methylbenzofuran,CC1=CC2=CC=CC=C2O1,470.65,9,"[1, 6, 8]",3,True,CHO,aromatic
1241,"3,7-Dimethyl-Octa-1,6-Dien-3-Ol",CC(=CCCC(C)(C=C)O)C,471.15,10,"[1, 6, 8]",3,True,CHO,alkene