,Name,SMILES,Tb,C Atom,Atom,Count Unique Atom,Pass Screen,Atom2,Func. Group
2367,Ethyl Ethylcarbamate,CCNC(=O)OCC,449.15,5,"[1, 6, 7, 8]",4,True,CHON,ester
2368,"Piperidine, 1-Butyl-",CCCCN1CCCCC1,449.15,9,"[1, 6, 7]",3,True,CHN,amine
2369,"P-Formyl-N,n-Dimethylaniline",CN(C)C1=CC=C(C=C1)C=O,449.65,9,"[1, 6, 7, 8]",4,True,CHON,aldehyde
2370,5-Methoxyindole,COC1=CC2=C(C=C1)NC=C2,450.15,9,"[1, 6, 7, 8]",4,True,CHON,ester
2371,Tetramethylurea,CN(C)C(=O)N(C)C,449.65,5,"[1, 6, 7, 8]",4,True,CHON,amide
2372,Enallylpropymal,CC(C)C1(C(=O)NC(=O)N(C1=O)C)CC=C,450.15,11,"[1, 6, 7, 8]",4,True,CHON,amide
2373,"5-Hepten-2-Amine, N,6-Dimethyl-",CC(CCC=C(C)C)NC,450.15,9,"[1, 6, 7]",3,True,CHN,alkene
2374,"N,n-Diethylformamide",CCN(CC)C=O,450.65,5,"[1, 6, 7, 8]",4,True,CHON,amide
2375,2-Amino-Butan-1-Ol,CCC(CO)N,451.15,4,"[1, 6, 7, 8]",4,True,CHON,alcohol
2376,"Pyridine, 4-(1-Methylethyl)-",CC(C)C1=CC=NC=C1,451.15,8,"[1, 6, 7]",3,True,CHN,aromatic
2377,5-Ethyl-2-Methylpyridine,CCC1=CN=C(C=C1)C,451.45,8,"[1, 6, 7]",3,True,CHN,aromatic
2378,Cadaverine,C(CCN)CCN,452.15,5,"[1, 6, 7]",3,True,CHN,amine
2379,"Pyridine, 2,6-Dimethoxy-",COC1=NC(=CC=C1)OC,452.15,7,"[1, 6, 7, 8]",4,True,CHON,ester
2380,"Pyridine, 4-Ethyl-2-Methyl-",CCC1=CC(=NC=C1)C,452.15,8,"[1, 6, 7]",3,True,CHN,aromatic
2381,"3,4-Dimethylpyridine",CC1=C(C=NC=C1)C,452.25,7,"[1, 6, 7]",3,True,CHN,aromatic
2382,N-Octylamine,CCCCCCCCN,452.75,8,"[1, 6, 7]",3,True,CHN,amine
2383,Ethylnitrite,CCON=O,291.15,2,"[1, 6, 7, 8]",4,True,CHON,ester
2384,Mescaline,COC1=CC(=CC(=C1OC)OC)CCN,453.15,11,"[1, 6, 7, 8]",4,True,CHON,ester
2385,Diacetonamine,CC(=O)CC(C)(C)N,453.15,6,"[1, 6, 7, 8]",4,True,CHON,ketone
2386,Fenadiazole,C1=CC=C(C(=C1)C2=NN=CO2)O,453.15,8,"[1, 6, 7, 8]",4,True,CHON,aromatic
2387,4-Aminoquinoline,C1=CC=C2C(=C1)C(=CC=N2)N,453.15,9,"[1, 6, 7]",3,True,CHN,aromatic
2388,"Benzonitrile, 3,4,5-Trimethoxy-",COC1=CC(=CC(=C1OC)OC)C#N,455.65,10,"[1, 6, 7, 8]",4,True,CHON,ester
2389,N-Methylbenzylamine,CNCC1=CC=CC=C1,453.65,8,"[1, 6, 7]",3,True,CHN,aromatic
2390,"Pyrazine, 3-Ethyl-2,5-Dimethyl-",CCC1=NC(=CN=C1C)C,453.65,8,"[1, 6, 7]",3,True,CHN,aromatic
2391,"Pyrazine, 2,3-Diethyl-",CCC1=NC=CN=C1CC,454.15,8,"[1, 6, 7]",3,True,CHN,aromatic
2392,N-Isobutylmorpholine,CC(C)CN1CCOCC1,454.15,8,"[1, 6, 7, 8]",4,True,CHON,ester
2393,2-Methyl-5-Vinylpyridine,CC1=NC=C(C=C1)C=C,454.15,8,"[1, 6, 7]",3,True,CHN,alkene
2394,"N,n-Dimethylbenzylamine",CN(C)CC1=CC=CC=C1,454.15,9,"[1, 6, 7]",3,True,CHN,aromatic
2395,"2-Propanol, 1,3-Bis(dimethylamino)-",CN(C)CC(CN(C)C)O,454.65,7,"[1, 6, 7, 8]",4,True,CHON,alcohol
2396,O-Hydroxybenzamide,C1=CC=C(C(=C1)C(=O)N)O,454.65,7,"[1, 6, 7, 8]",4,True,CHON,amide
2397,Benzoxazole,C1=CC=C2C(=C1)N=CO2,455.65,7,"[1, 6, 7, 8]",4,True,CHON,aromatic
2398,"Acetonitrile, Hydroxy-",C(C#N)O,456.15,2,"[1, 6, 7, 8]",4,True,CHON,alcohol
2399,2-Hydroxypropanenitrile,CC(C#N)O,456.15,3,"[1, 6, 7, 8]",4,True,CHON,alcohol
2400,Isopropyl Carbamate,CC(C)OC(=O)N,456.15,4,"[1, 6, 7, 8]",4,True,CHON,ester
2401,"Ethanol, 2-(propylamino)-",CCCNCCO,456.15,5,"[1, 6, 7, 8]",4,True,CHON,alcohol
2402,"Pyridine, 2,3,5-Trimethyl-",CC1=CC(=C(N=C1)C)C,457.15,8,"[1, 6, 7]",3,True,CHN,aromatic
2403,Aniline,C1=CC=C(C=C1)N,457.31999999999994,6,"[1, 6, 7]",3,True,CHN,aromatic
2404,"Propanenitrile, 3-Amino-",C(CN)C#N,458.15,3,"[1, 6, 7]",3,True,CHN,amine
2405,Benzylamine,C1=CC=C(C=C1)CN,458.15,7,"[1, 6, 7]",3,True,CHN,aromatic
2406,"Benzenemethanamine, .alpha.-Methyl-",CC(C1=CC=CC=C1)N,458.15,8,"[1, 6, 7]",3,True,CHN,aromatic
2407,4-Propylpyridine,CCCC1=CC=NC=C1,458.15,8,"[1, 6, 7]",3,True,CHN,aromatic
2408,"Benzene, 1-Isocyanato-2-Methyl-",CC1=CC=CC=C1N=C=O,458.15,8,"[1, 6, 7, 8]",4,True,CHON,aromatic
2409,"Methanamine, N-(phenylmethylene)-",CN=CC1=CC=CC=C1,458.15,8,"[1, 6, 7]",3,True,CHN,aromatic
2410,"2,3-Butanedione, Monooxime",C/C(=N\O)/C(=O)C,458.65,4,"[1, 6, 7, 8]",4,True,CHON,ketone
2411,Diethylacetamide,CCN(CC)C(=O)C,458.65,6,"[1, 6, 7, 8]",4,True,CHON,amide
2412,"2-Butenedinitrile, (e)-",C(=C/C#N)\C#N,459.15,4,"[1, 6, 7]",3,True,CHN,alkene
2413,"Butanamide, N,n-Dimethyl-",CCCC(=O)N(C)C,459.15,6,"[1, 6, 7, 8]",4,True,CHON,amide
2414,2-(dimethylamino)ethyl 2-Methyl-2-Propenoate,CC(=C)C(=O)OCCN(C)C,459.15,8,"[1, 6, 7, 8]",4,True,CHON,ester
2415,Pyrazole,C1=CNN=C1,460.15,3,"[1, 6, 7]",3,True,CHN,aromatic
2416,6-Aminoquinoline,C1=CC2=C(C=CC(=C2)N)N=C1,460.15,9,"[1, 6, 7]",3,True,CHN,aromatic
2417,Propanolamine,C(CN)CO,460.65,3,"[1, 6, 7, 8]",4,True,CHON,alcohol
2418,"Pyridine, 4-Ethyl-2,6-Dimethyl-",CCC1=CC(=NC(=C1)C)C,460.65,9,"[1, 6, 7]",3,True,CHN,aromatic
2419,"1-Butanamine, 3-Methyl-n-(3-Methylbutyl)-",CC(C)CCNCCC(C)C,461.15,10,"[1, 6, 7]",3,True,CHN,amine
2420,Diethylcyanamide,CCN(CC)C#N,461.15,5,"[1, 6, 7]",3,True,CHN,amine
2421,"2,4,5-Trimethylpyridine",CC1=CC(=NC=C1C)C,461.15,8,"[1, 6, 7]",3,True,CHN,aromatic
2422,"4-Piperidinamine, 2,2,6,6-Tetramethyl-",CC1(CC(CC(N1)(C)C)N)C,461.65,9,"[1, 6, 7]",3,True,CHN,amine
2423,Butyranilide,CCCC(=O)NC1=CC=CC=C1,462.15,10,"[1, 6, 7, 8]",4,True,CHON,aromatic
2424,"Pyrazine, 2-Methyl-3-Propyl-",CCCC1=NC=CN=C1C,462.15,8,"[1, 6, 7]",3,True,CHN,aromatic
2425,"1-Propanol, 3-(diethylamino)-",CCN(CC)CCCO,462.65,7,"[1, 6, 7, 8]",4,True,CHON,alcohol
2426,"Pyrazine, Tetramethyl-",CC1=C(N=C(C(=N1)C)C)C,463.15,8,"[1, 6, 7]",3,True,CHN,aromatic
2427,Cyclooctanamine,C1CCCC(CCC1)N,463.15,8,"[1, 6, 7]",3,True,CHN,amine
2428,2-(bis(1-Methylethyl)amino)ethanol,CC(C)N(CCO)C(C)C,463.15,8,"[1, 6, 7, 8]",4,True,CHON,alcohol
2429,Octyldimethylamine,CCCCCCCCN(C)C,464.15,10,"[1, 6, 7]",3,True,CHN,amine
2430,"Propanamide, N,n-Diethyl-",CCC(=O)N(CC)CC,464.15,7,"[1, 6, 7, 8]",4,True,CHON,amide
2431,Benzonitrile,C1=CC=C(C=C1)C#N,464.25,7,"[1, 6, 7]",3,True,CHN,aromatic
2432,"1-Propanamine, 2-Methyl-N,n-Bis(2-Methylpropyl)-",CC(C)CN(CC(C)C)CC(C)C,464.65,12,"[1, 6, 7]",3,True,CHN,amine
2433,"1,2-Ethanediamine, N,n,n',n'-Tetraethyl-",CCN(CC)CCN(CC)CC,465.15,10,"[1, 6, 7]",3,True,CHN,amine
2434,2-Acetylpyridine,CC(=O)C1=CC=CC=N1,465.15,7,"[1, 6, 7, 8]",4,True,CHON,aromatic
2435,"Pyridine, 2-Butyl-",CCCCC1=CC=CC=N1,465.15,9,"[1, 6, 7]",3,True,CHN,aromatic
2436,"2,3,4-Trimethylpyridine",CC1=C(C(=NC=C1)C)C,465.65,8,"[1, 6, 7]",3,True,CHN,aromatic
2437,Acrylamide,C=CC(=O)N,465.75,3,"[1, 6, 7, 8]",4,True,CHON,alkene
2438,"Cyclohexanamine, N,n-Diethyl-",CCN(CC)C1CCCCC1,466.15,10,"[1, 6, 7]",3,True,CHN,amine
2439,"N,n-Dimethylaniline",CN(C)C1=CC=CC=C1,466.15,8,"[1, 6, 7]",3,True,CHN,aromatic
2440,"Benzenemethanamine, N-Ethyl-",CCNCC1=CC=CC=C1,467.15,9,"[1, 6, 7]",3,True,CHN,aromatic
2441,"N,n-Dimethyl-o-Toluidine",CC1=CC=CC=C1N(C)C,467.25,9,"[1, 6, 7]",3,True,CHN,aromatic
2442,Bis(2-(dimethylamino)ethyl) Ether,CN(C)CCOCCN(C)C,467.95,8,"[1, 6, 7, 8]",4,True,CHON,ester
2443,"Acetamide, N-Acetyl-n-Methyl-",CC(=O)N(C)C(=O)C,468.15,5,"[1, 6, 7, 8]",4,True,CHON,amide
2444,"Benzenemethanamine, 4-Methyl-",CC1=CC=C(C=C1)CN,468.15,8,"[1, 6, 7]",3,True,CHN,aromatic
2445,"Pyridine, 2-(1-Ethylpropyl)-",CCC(CC)C1=CC=CC=N1,468.54999999999995,10,"[1, 6, 7]",3,True,CHN,aromatic
2446,"1h-Imidazole, 1-Methyl-",CN1C=CN=C1,468.65,4,"[1, 6, 7]",3,True,CHN,aromatic
2447,"Benzenamine, N,n,2,6-Tetramethyl-",CC1=C(C(=CC=C1)C)N(C)C,469.15,10,"[1, 6, 7]",3,True,CHN,aromatic
2448,2-Dimethylaminopyridine,CN(C)C1=CC=CC=N1,469.15,7,"[1, 6, 7]",3,True,CHN,aromatic
2449,2-Dipropylamino-Ethanol,CCCN(CCC)CCO,469.15,8,"[1, 6, 7, 8]",4,True,CHON,alcohol
2450,"Ethanamine, N-(phenylmethylene)-",CCN=CC1=CC=CC=C1,469.15,9,"[1, 6, 7]",3,True,CHN,aromatic
2451,"1,2-Ethanediamine, N,n'-Bis(1,1-Dimethylethyl)-",CC(C)(C)NCCNC(C)(C)C,470.15,10,"[1, 6, 7]",3,True,CHN,amine
2452,N-Methylaniline,CNC1=CC=CC=C1,469.34999999999997,7,"[1, 6, 7]",3,True,CHN,aromatic
2453,4-(tert-Butyl)pyridine,CC(C)(C)C1=CC=NC=C1,469.65,9,"[1, 6, 7]",3,True,CHN,aromatic
2454,N-Acetyl-n-Ethyl-Acetamide,CCN(C(=O)C)C(=O)C,470.15,6,"[1, 6, 7, 8]",4,True,CHON,amide
2455,2-Phenylethylamine,C1=CC=C(C=C1)CCN,470.65,8,"[1, 6, 7]",3,True,CHN,aromatic
2456,N-Formylethylamine,CCNC=O,471.15,3,"[1, 6, 7, 8]",4,True,CHON,amide
2457,"Pyridine, 3-Ethyl-4-Methyl-",CCC1=C(C=CN=C1)C,471.15,8,"[1, 6, 7]",3,True,CHN,aromatic
2458,"3,5-Dimethyl-2-Ethylpyridine",CCC1=C(C=C(C=N1)C)C,471.15,9,"[1, 6, 7]",3,True,CHN,aromatic
2459,"Piperidine, 1-Pentyl-",CCCCCN1CCCCC1,471.34999999999997,10,"[1, 6, 7]",3,True,CHN,amine
2460,2-Isobutylamino-Ethanol,CC(C)CNCCO,472.15,6,"[1, 6, 7, 8]",4,True,CHON,alcohol
2461,"Ethanol, 2-(butylamino)-",CCCCNCCO,472.15,6,"[1, 6, 7, 8]",4,True,CHON,alcohol
2462,"1h-Pyrrole, 3-Ethyl-2,4-Dimethyl-",CCC1=C(NC=C1C)C,472.15,8,"[1, 6, 7]",3,True,CHN,aromatic
2463,Methylformamide,CNC=O,472.65,2,"[1, 6, 7, 8]",4,True,CHON,amide
2464,Trimethylamine,CN(C)C,276.02,3,"[1, 6, 7]",3,True,CHN,amine
2465,"Benzenemethanamine, N-(1-Methylethyl)-",CC(C)NCC1=CC=CC=C1,473.15,10,"[1, 6, 7]",3,True,CHN,aromatic
2466,Phenyldiethanolamine,C1=CC=C(C=C1)N(CCO)CCO,473.15,10,"[1, 6, 7, 8]",4,True,CHON,aromatic
2467,(acetyloxy)acetonitrile,CC(=O)OCC#N,473.15,4,"[1, 6, 7, 8]",4,True,CHON,ester
2468,"4-Piperidinol, 1-Methyl-",CN1CCC(CC1)O,473.15,6,"[1, 6, 7, 8]",4,True,CHON,alcohol
2469,4-Piperidinemethanamine,C1CNCCC1CN,473.15,6,"[1, 6, 7]",3,True,CHN,amine
2470,Dimetilan,CC1=CC(=NN1C(=O)N(C)C)OC(=O)N(C)C,478.15,10,"[1, 6, 7, 8]",4,True,CHON,ester
2471,O-Toluidine,CC1=CC=CC=C1N,473.45,7,"[1, 6, 7]",3,True,CHN,aromatic
2472,P-Toluidine,CC1=CC=C(C=C1)N,473.54999999999995,7,"[1, 6, 7]",3,True,CHN,aromatic
2473,Methyl Cyanoacetate,COC(=O)CC#N,473.65,4,"[1, 6, 7, 8]",4,True,CHON,ester
2474,2-Methylaminopyridine,CNC1=CC=CC=N1,473.65,6,"[1, 6, 7]",3,True,CHN,aromatic
2475,"Benzoxazole, 2-Methyl-",CC1=NC2=CC=CC=C2O1,473.65,8,"[1, 6, 7, 8]",4,True,CHON,aromatic
2476,"1,4-Pentanediamine, N1,n1-Diethyl-",CCN(CC)CCCC(C)N,474.15,9,"[1, 6, 7]",3,True,CHN,amine
2477,N-Tert-Butylformamide,CC(C)(C)NC=O,475.15,5,"[1, 6, 7, 8]",4,True,CHON,amide
2478,N-Methylpyrrolidone,CN1CCCC1=O,475.15,5,"[1, 6, 7, 8]",4,True,CHON,amide
2479,2-Piperidineethanol,C1CCNC(C1)CCO,475.15,7,"[1, 6, 7, 8]",4,True,CHON,alcohol
2480,1-Piperidine Ethanol,C1CCN(CC1)CCO,475.15,7,"[1, 6, 7, 8]",4,True,CHON,alcohol
2481,N-Nonylamine,CCCCCCCCCN,475.34999999999997,9,"[1, 6, 7]",3,True,CHN,amine
2482,Dipentylamine,CCCCCNCCCCC,475.65,10,"[1, 6, 7]",3,True,CHN,amine
2483,"Pyridine, 2-(2-Methoxyethyl)-",COCCC1=CC=CC=N1,476.15,8,"[1, 6, 7, 8]",4,True,CHON,ester
2484,"Pyridine, 2,3,4,6-Tetramethyl-",CC1=CC(=NC(=C1C)C)C,476.15,9,"[1, 6, 7]",3,True,CHN,aromatic
2485,"Benzenamine, N-(1-Methylethyl)-",CC(C)NC1=CC=CC=C1,476.15,9,"[1, 6, 7]",3,True,CHN,aromatic
2486,Alpha-Methylphenethylamine,CC(CC1=CC=CC=C1)N,476.15,9,"[1, 6, 7]",3,True,CHN,aromatic
2487,N-Ethylaniline,CCNC1=CC=CC=C1,476.15,8,"[1, 6, 7]",3,True,CHN,aromatic
2488,M-Toluidine,CC1=CC(=CC=C1)N,476.45,7,"[1, 6, 7]",3,True,CHN,aromatic
2489,"Benzenemethanamine, 3-Methyl-",CC1=CC(=CC=C1)CN,476.65,8,"[1, 6, 7]",3,True,CHN,aromatic
2490,Diglycidylaniline,C1C(O1)CN(CC2CO2)C3=CC=CC=C3,477.15,12,"[1, 6, 7, 8]",4,True,CHON,ester
2491,"2h-1,2,3-Triazole",C1=NNN=C1,477.15,2,"[1, 6, 7]",3,True,CHN,aromatic
2492,3-Methyl-1h-Pyrazole,CC1=CC=NN1,477.15,4,"[1, 6, 7]",3,True,CHN,aromatic
2493,"Nicotinic Acid, Methyl Ester",COC(=O)C1=CN=CC=C1,477.15,7,"[1, 6, 7, 8]",4,True,CHON,ester
2494,"Benzenamine, N-Ethyl-n-Methyl-",CCN(C)C1=CC=CC=C1,477.15,9,"[1, 6, 7]",3,True,CHN,aromatic
2495,"1,8-Naphthalenediamine",C1=CC2=C(C(=C1)N)C(=CC=C2)N,478.15,10,"[1, 6, 7]",3,True,CHN,aromatic
2496,Phentermine,CC(C)(CC1=CC=CC=C1)N,478.15,10,"[1, 6, 7]",3,True,CHN,aromatic
2497,Propylhexedrine,CC(CC1CCCCC1)NC,478.15,10,"[1, 6, 7]",3,True,CHN,amine
2498,"1,3-Propanediamine, N,n-Dibutyl-",CCCCN(CCCC)CCCN,478.15,11,"[1, 6, 7]",3,True,CHN,amine
2499,N-Methylacetamide,CC(=O)NC,478.15,3,"[1, 6, 7, 8]",4,True,CHON,amide
2500,"Acetamide, N-Ethyl-",CCNC(=O)C,478.15,4,"[1, 6, 7, 8]",4,True,CHON,amide
2501,Ethyl Cyanoacetate,CCOC(=O)CC#N,478.15,5,"[1, 6, 7, 8]",4,True,CHON,ester
2502,4-Morpholineethanamine,C1COCCN1CCN,478.15,6,"[1, 6, 7, 8]",4,True,CHON,ester
2503,Hexamethylene Diamine,C(CCCN)CCN,478.15,6,"[1, 6, 7]",3,True,CHN,amine
2504,"Propanenitrile, 3,3'-Iminobis-",C(CNCCC#N)C#N,478.15,6,"[1, 6, 7]",3,True,CHN,amine
2505,2-Methylbenzonitrile,CC1=CC=CC=C1C#N,478.15,8,"[1, 6, 7]",3,True,CHN,aromatic
2506,Indolizine,C1=CC2=CC=CN2C=C1,478.15,8,"[1, 6, 7]",3,True,CHN,aromatic
2507,"4-Piperidinone, 2,2,6,6-Tetramethyl-",CC1(CC(=O)CC(N1)(C)C)C,478.15,9,"[1, 6, 7, 8]",4,True,CHON,ketone
2508,4-(2-Aminoethyl)phenol,C1=CC(=CC=C1CCN)O,479.15,8,"[1, 6, 7, 8]",4,True,CHON,alcohol
2509,"1h-Pyrazole, 4-Methyl-",CC1=CNN=C1,479.15,4,"[1, 6, 7]",3,True,CHN,aromatic
2510,"1h-Imidazole, 1,2-Dimethyl-",CC1=NC=CN1C,479.15,5,"[1, 6, 7]",3,True,CHN,aromatic
2511,"Benzenemethanamine, 2-Methyl-",CC1=CC=CC=C1CN,479.15,8,"[1, 6, 7]",3,True,CHN,aromatic
2512,"Butanamide, N,n-Diethyl-",CCCC(=O)N(CC)CC,479.15,8,"[1, 6, 7, 8]",4,True,CHON,amide
2513,"Benzeneacetonitrile, .alpha.-Oxo-",C1=CC=C(C=C1)C(=O)C#N,479.15,8,"[1, 6, 7, 8]",4,True,CHON,aromatic
2514,"Benzeneethanamine, N-Methyl-",CNCCC1=CC=CC=C1,479.15,9,"[1, 6, 7]",3,True,CHN,aromatic
2515,"Benzenamine, N,3-Dimethyl-",CC1=CC(=CC=C1)NC,479.65,8,"[1, 6, 7]",3,True,CHN,aromatic
2516,"Pyridine, 3-Butyl-",CCCCC1=CN=CC=C1,479.65,9,"[1, 6, 7]",3,True,CHN,aromatic
2517,3-Cyanopyridine,C1=CC(=CN=C1)C#N,480.04999999999995,6,"[1, 6, 7]",3,True,CHN,aromatic
2518,Diethylenetriamine,C(CNCCN)N,480.15,4,"[1, 6, 7]",3,True,CHN,amine
2519,"Carbamic Acid, 2-Methylpropyl Ester",CC(C)COC(=O)N,480.15,5,"[1, 6, 7, 8]",4,True,CHON,ester
2520,N-Methyl-o-Toluidine,CC1=CC=CC=C1NC,480.65,8,"[1, 6, 7]",3,True,CHN,aromatic
2521,Vancide-Th,CCN1CN(CN(C1)CC)CC,480.65,9,"[1, 6, 7]",3,True,CHN,amine
2522,Pyridazine,C1=CC=NN=C1,481.15,4,"[1, 6, 7]",3,True,CHN,aromatic
2523,"1h-Imidazole, 1-Ethyl-",CCN1C=CN=C1,481.15,5,"[1, 6, 7]",3,True,CHN,aromatic
2524,"2-Pyridinamine, 6-Methyl-",CC1=NC(=CC=C1)N,481.65,6,"[1, 6, 7]",3,True,CHN,aromatic
2525,"Benzenamine, N,n-Diethyl-2-Methyl-",CCN(CC)C1=CC=CC=C1C,482.15,11,"[1, 6, 7]",3,True,CHN,aromatic
2526,Arecoline,CN1CCC=C(C1)C(=O)OC,482.15,8,"[1, 6, 7, 8]",4,True,CHON,ester
2527,"Pyridine, 4-Butyl-",CCCCC1=CC=NC=C1,482.15,9,"[1, 6, 7]",3,True,CHN,aromatic
2528,"Urea, Tetraethyl-",CCN(CC)C(=O)N(CC)CC,482.15,9,"[1, 6, 7, 8]",4,True,CHON,amide
2529,1h-Imidazole-4-Ethanamine,C1=C(NC=N1)CCN,482.65,5,"[1, 6, 7]",3,True,CHN,aromatic
2530,"1,6-Hexanediamine, N,n,n',n'-Tetramethyl-",CN(C)CCCCCCN(C)C,482.65,10,"[1, 6, 7]",3,True,CHN,amine
2531,"Acetamide, N,n-Dipropyl-",CCCN(CCC)C(=O)C,482.65,8,"[1, 6, 7, 8]",4,True,CHON,amide
2532,O-Ethylaniline,CCC1=CC=CC=C1N,482.79999999999995,8,"[1, 6, 7]",3,True,CHN,aromatic
2533,N-Methyl P-Toluidine,CC1=CC=C(C=C1)NC,483.15,8,"[1, 6, 7]",3,True,CHN,aromatic
2534,"1h-Benzotriazole, 5-Methyl-",CC1=CC2=NNN=C2C=C1,484.15,7,"[1, 6, 7]",3,True,CHN,aromatic
2535,2-Aminopyridine,C1=CC=NC(=C1)N,483.75,5,"[1, 6, 7]",3,True,CHN,aromatic
2536,"Propanoic Acid, 3-Cyano-, Methyl Ester",COC(=O)CCC#N,484.15,5,"[1, 6, 7, 8]",4,True,CHON,ester
2537,"N,n,4-Trimethylaniline",CC1=CC=C(C=C1)N(C)C,484.15,9,"[1, 6, 7]",3,True,CHN,aromatic
2538,Isovaleryl Diethylamide,CCN(CC)C(=O)CC(C)C,484.15,9,"[1, 6, 7, 8]",4,True,CHON,amide
2539,4-Acetylpyridine,CC(=O)C1=CC=NC=C1,485.15,7,"[1, 6, 7, 8]",4,True,CHON,aromatic
2540,"Benzonitrile, 3-Methyl-",CC1=CC(=CC=C1)C#N,486.15,8,"[1, 6, 7]",3,True,CHN,aromatic
2541,4-Cyanopyridine,C1=CN=CC=C1C#N,486.65,6,"[1, 6, 7]",3,True,CHN,aromatic
2542,"Morpholine, 4-Butyl-",CCCCN1CCOCC1,486.65,8,"[1, 6, 7, 8]",4,True,CHON,ester
2543,"N,n,2,4,6-Pentamethylaniline",CC1=CC(=C(C(=C1)C)N(C)C)C,487.15,11,"[1, 6, 7]",3,True,CHN,aromatic
2544,"Pyridazine, 3-Methyl-",CC1=NN=CC=C1,487.15,5,"[1, 6, 7]",3,True,CHN,aromatic
2545,"2,5-Dimethylaniline",CC1=CC(=C(C=C1)C)N,487.15,8,"[1, 6, 7]",3,True,CHN,aromatic
2546,M-Ethylaniline,CCC1=CC(=CC=C1)N,487.15,8,"[1, 6, 7]",3,True,CHN,aromatic
2547,"2,4-Dimethylaniline",CC1=CC(=C(C=C1)N)C,487.15,8,"[1, 6, 7]",3,True,CHN,aromatic
2548,"Methanimidic Acid, N-Phenyl-, Ethyl Ester",CCOC=NC1=CC=CC=C1,487.15,9,"[1, 6, 7, 8]",4,True,CHON,ester
2549,"Benzeneethanamine, 4-Methyl-",CC1=CC=C(C=C1)CCN,487.15,9,"[1, 6, 7]",3,True,CHN,aromatic
2550,"2,6-Dimethylaniline",CC1=C(C(=CC=C1)C)N,488.15,8,"[1, 6, 7]",3,True,CHN,aromatic
2551,"1,4-Piperazinediethanol",C1CN(CCN1CCO)CCO,490.65,8,"[1, 6, 7, 8]",4,True,CHON,alcohol
2552,"1,2-Benzenediamine, N,n,n',n'-Tetramethyl-",CN(C)C1=CC=CC=C1N(C)C,488.65,10,"[1, 6, 7]",3,True,CHN,aromatic
2553,"Pyridine, 2-(3-Pentenyl)-",C/C=C/CCC1=CC=CC=N1,489.15,10,"[1, 6, 7]",3,True,CHN,alkene
2554,Butyramide,CCCC(=O)N,489.15,4,"[1, 6, 7, 8]",4,True,CHON,amide
2555,"Benzenamine, N-Ethyl-2-Methyl-",CCNC1=CC=CC=C1C,489.15,9,"[1, 6, 7]",3,True,CHN,aromatic
2556,"N,n-Diethylaniline",CCN(CC)C1=CC=CC=C1,489.45,10,"[1, 6, 7]",3,True,CHN,aromatic
2557,"Benzoic Acid, 3,4-Diamino-",C1=CC(=C(C=C1C(=O)O)N)N,489.65,7,"[1, 6, 7, 8]",4,True,CHON,carboxylic_acid
2558,"Pyridine, 4-(1-Ethylpropyl)-",CCC(CC)C1=CC=NC=C1,490.15,10,"[1, 6, 7]",3,True,CHN,aromatic
2559,"2-Pyrrolidinone, 1,5-Dimethyl-",CC1CCC(=O)N1C,490.15,6,"[1, 6, 7, 8]",4,True,CHON,amide
2560,"Benzenamine, N-Ethyl-4-Methyl-",CCNC1=CC=C(C=C1)C,490.15,9,"[1, 6, 7]",3,True,CHN,aromatic
2561,4-Methylbenzonitrile,CC1=CC=C(C=C1)C#N,490.15,8,"[1, 6, 7]",3,True,CHN,aromatic
2562,P-Ethylaniline,CCC1=CC=C(C=C1)N,490.65,8,"[1, 6, 7]",3,True,CHN,aromatic
2563,"Propanamide, 2-Methyl-",CC(C)C(=O)N,491.15,4,"[1, 6, 7, 8]",4,True,CHON,amide
2564,Pyrrole-2-Carboxaldehyde,C1=CNC(=C1)C=O,491.15,5,"[1, 6, 7, 8]",4,True,CHON,aromatic
2565,"1h-Pyrazole, 3,5-Dimethyl-",CC1=CC(=NN1)C,491.15,5,"[1, 6, 7]",3,True,CHN,aromatic
2566,1-Acetyl-Piperidin-4-One,CC(=O)N1CCC(=O)CC1,491.15,7,"[1, 6, 7, 8]",4,True,CHON,amide
2567,"1,2-Benzenediamine, N,n-Dimethyl-",CN(C)C1=CC=CC=C1N,491.15,8,"[1, 6, 7]",3,True,CHN,aromatic
2568,"5,6,7,8-Tetrahydro-Isoquinoline",C1CCC2=C(C1)C=CN=C2,491.15,9,"[1, 6, 7]",3,True,CHN,aromatic
2569,2-(2-Aminoethoxy)ethanol,C(COCCO)N,494.15,4,"[1, 6, 7, 8]",4,True,CHON,ester
2570,"Benzoxazole, 2,5-Dimethyl-",CC1=CC2=C(C=C1)OC(=N2)C,491.65,9,"[1, 6, 7, 8]",4,True,CHON,aromatic
2571,"Ethanol, 2-Hydrazino-",C(CO)NN,492.15,2,"[1, 6, 7, 8]",4,True,CHON,alcohol
2572,Aminotris(hydroxymethyl)methane,C(C(CO)(CO)N)O,492.65,4,"[1, 6, 7, 8]",4,True,CHON,alcohol
2573,"Isonicotinic Acid, Ethyl Ester",CCOC(=O)C1=CC=NC=C1,492.65,8,"[1, 6, 7, 8]",4,True,CHON,ester
2574,"Hydrazine, 1,1-Diphenyl-",C1=CC=C(C=C1)N(C2=CC=CC=C2)N,493.15,12,"[1, 6, 7]",3,True,CHN,aromatic
2575,"1,6-Hexanediamine, N-(6-Aminohexyl)-",C(CCCNCCCCCCN)CCN,493.15,12,"[1, 6, 7]",3,True,CHN,amine
2576,1-Piperazineethanamine,C1CN(CCN1)CCN,493.15,6,"[1, 6, 7]",3,True,CHN,amine
2577,2-Acetylpyrrole,CC(=O)C1=CC=CN1,493.15,6,"[1, 6, 7, 8]",4,True,CHON,aromatic
2578,4-Morpholinepropanamine,C1COCCN1CCCN,493.15,7,"[1, 6, 7, 8]",4,True,CHON,ester
2579,3-Acetylpyridine,CC(=O)C1=CN=CC=C1,493.15,7,"[1, 6, 7, 8]",4,True,CHON,aromatic
2580,"1,3-Cyclohexanedimethanamine",C1CC(CC(C1)CN)CN,493.15,8,"[1, 6, 7]",3,True,CHN,amine
2581,Formamide,C(=O)N,493.15,1,"[1, 6, 7, 8]",4,True,CHON,amide
2582,N-Decylamine,CCCCCCCCCCN,493.65,10,"[1, 6, 7]",3,True,CHN,amine
2583,"3,5-Dimethylaniline",CC1=CC(=CC(=C1)N)C,493.65,8,"[1, 6, 7]",3,True,CHN,aromatic
2584,Ethylene Cyanohydrin,C(CO)C#N,494.15,3,"[1, 6, 7, 8]",4,True,CHON,alcohol
2585,"1,3-Dimethyl-2-Imidazolidinone",CN1CCN(C1=O)C,494.15,5,"[1, 6, 7, 8]",4,True,CHON,amide
2586,"2,4 Diaminoanisole",COC1=C(C=C(C=C1)N)N,494.15,7,"[1, 6, 7, 8]",4,True,CHON,ester
2587,"Benzenamine, 2-(1-Methylethyl)-",CC(C)C1=CC=CC=C1N,494.15,9,"[1, 6, 7]",3,True,CHN,aromatic
2588,"Benzenamine, N-Ethyl-3-Methyl-",CCNC1=CC=CC(=C1)C,494.15,9,"[1, 6, 7]",3,True,CHN,aromatic
2589,5-Aminopentanol,C(CCN)CCO,494.65,5,"[1, 6, 7, 8]",4,True,CHON,alcohol
2590,"2,3-Dimethylaniline",CC1=C(C(=CC=C1)N)C,494.65,8,"[1, 6, 7]",3,True,CHN,aromatic
2591,Acetamide,CC(=O)N,495.15,2,"[1, 6, 7, 8]",4,True,CHON,amide
2592,"Quinoline, 5,6,7,8-Tetrahydro-",C1CCC2=C(C1)C=CC=N2,495.15,9,"[1, 6, 7]",3,True,CHN,aromatic