,Name,SMILES,Tb,C Atom,Atom,Count Unique Atom,Pass Screen,Atom2,Func. Group
5716,1-aminocyclohexane-1-carboxylic acid,C1CCC(CC1)(C(=O)O)N,597.59,7,"[1, 6, 7, 8]",4,True,CHON,carboxylic_acid
5717,"2,3-dihydroxypropyl 2-methylprop-2-enoate",CC(=C)C(=O)OCC(CO)O,598.46,7,"[1, 6, 8]",3,True,CHO,ester
5718,3-[2-(2-hydroxyethoxy)ethoxy]propanenitrile,C(COCCOCCO)C#N,598.86,7,"[1, 6, 7, 8]",4,True,CHON,ester
5719,2-[(E)-hydroxyiminomethyl]phenol,C1=CC=C(C(=C1)/C=N/O)O,599.11,7,"[1, 6, 7, 8]",4,True,CHON,aromatic
5720,4-[(E)-hydroxyiminomethyl]phenol,C1=CC(=CC=C1/C=N/O)O,599.11,7,"[1, 6, 7, 8]",4,True,CHON,aromatic
5721,N-pyridin-3-ylacetamide,CC(=O)NC1=CN=CC=C1,599.65,7,"[1, 6, 7, 8]",4,True,CHON,aromatic
5722,2-hydroxybenzenecarboximidamide,C1=CC=C(C(=C1)C(=N)N)O,601.7,7,"[1, 6, 7, 8]",4,True,CHON,aromatic
5723,"3-morpholin-4-ylpropane-1,2-diol",C1COCCN1CC(CO)O,603.02,7,"[1, 6, 7, 8]",4,True,CHON,ester
5724,2-formamido-4-methylpentanoic acid,CC(C)CC(C(=O)O)NC=O,603.22,7,"[1, 6, 7, 8]",4,True,CHON,carboxylic_acid
5725,2-(propan-2-ylideneamino)oxybutanoic acid,CCC(C(=O)O)ON=C(C)C,603.81,7,"[1, 6, 7, 8]",4,True,CHON,carboxylic_acid
5726,"N,N'-bis(2-aminoethyl)propane-1,3-diamine",C(CNCCN)CNCCN,605.16,7,"[1, 6, 7]",3,True,CHN,amine
5727,"5-methyl-5-propan-2-ylimidazolidine-2,4-dione",CC(C)C1(C(=O)NC(=O)N1)C,607.58,7,"[1, 6, 7, 8]",4,True,CHON,amide
5728,N'-[3-(aziridin-1-yl)propyl]oxamide,C1CN1CCCNC(=O)C(=O)N,609.78,7,"[1, 6, 7, 8]",4,True,CHON,amide
5729,2-[(2-methylpropan-2-yl)oxycarbonylamino]acetic acid,CC(C)(C)OC(=O)NCC(=O)O,610.43,7,"[1, 6, 7, 8]",4,True,CHON,carboxylic_acid
5730,4-hydroxy-N-(2-hydroxyethyl)-N-methylbutanamide,CN(CCO)C(=O)CCCO,610.43,7,"[1, 6, 7, 8]",4,True,CHON,amide
5731,"N,N-bis(2-hydroxyethyl)propanamide",CCC(=O)N(CCO)CCO,610.43,7,"[1, 6, 7, 8]",4,True,CHON,amide
5732,"3-propan-2-ylpiperazine-2,5-dione",CC(C)C1C(=O)NCC(=O)N1,611.61,7,"[1, 6, 7, 8]",4,True,CHON,amide
5733,2-acetamido-3-methylbut-2-enoic acid,CC(=C(C(=O)O)NC(=O)C)C,613.23,7,"[1, 6, 7, 8]",4,True,CHON,carboxylic_acid
5734,"2-methylpropyl N,N-bis(hydroxymethyl)carbamate",CC(C)COC(=O)N(CO)CO,614.34,7,"[1, 6, 7, 8]",4,True,CHON,ester
5735,ethyl (Z)-2-cyano-3-hydroxybut-2-enoate,CCOC(=O)/C(=C(/C)\O)/C#N,616.16,7,"[1, 6, 7, 8]",4,True,CHON,ester
5736,N-(3-hydroxybutyl)-N-(2-hydroxypropyl)nitrous amide,CC(CCN(CC(C)O)N=O)O,619.08,7,"[1, 6, 7, 8]",4,True,CHON,alcohol
5737,N-(4-hydroxybutyl)-N-(2-hydroxypropyl)nitrous amide,CC(CN(CCCCO)N=O)O,619.52,7,"[1, 6, 7, 8]",4,True,CHON,alcohol
5738,N-(4-hydroxybutyl)-N-(3-hydroxypropyl)nitrous amide,C(CCO)CN(CCCO)N=O,619.96,7,"[1, 6, 7, 8]",4,True,CHON,alcohol
5739,ethyl 2-acetamido-2-cyanoacetate,CCOC(=O)C(C#N)NC(=O)C,623.66,7,"[1, 6, 7, 8]",4,True,CHON,ester
5740,"1,3-diazaspiro[4.4]nonane-2,4-dione",C1CCC2(C1)C(=O)NC(=O)N2,623.7,7,"[1, 6, 7, 8]",4,True,CHON,amide
5741,1-[2-(2-aminoethylamino)ethylamino]propan-2-ol,CC(CNCCNCCN)O,624.37,7,"[1, 6, 7, 8]",4,True,CHON,alcohol
5742,"N,N-bis(2-cyanoethyl)formamide",C(CN(CCC#N)C=O)C#N,625.02,7,"[1, 6, 7, 8]",4,True,CHON,amide
5743,2-[2-(2-aminoethylamino)ethylamino]propanenitrile,CC(C#N)NCCNCCN,634.27,7,"[1, 6, 7]",3,True,CHN,amine
5744,3-[2-(2-aminoethylamino)ethylamino]propanenitrile,C(CNCCNCCN)C#N,634.71,7,"[1, 6, 7]",3,True,CHN,amine
5745,"heptane-1,2,3-triol",CCCCC(C(CO)O)O,635.42,7,"[1, 6, 8]",3,True,CHO,alcohol
5746,"heptane-1,4,7-triol",C(CC(CCCO)O)CO,635.86,7,"[1, 6, 8]",3,True,CHO,alcohol
5747,diethyl 2-hydroxyiminopropanedioate,CCOC(=O)C(=NO)C(=O)OCC,644.94,7,"[1, 6, 7, 8]",4,True,CHON,ester
5748,"2,2,3-trimethylbutanedioic acid",CC(C(=O)O)C(C)(C)C(=O)O,647.11,7,"[1, 6, 8]",3,True,CHO,alcohol
5749,"2,2-diethylpropanedioic acid",CCC(CC)(C(=O)O)C(=O)O,647.55,7,"[1, 6, 8]",3,True,CHO,alcohol
5750,"2,2-dimethylpentanedioic acid",CC(C)(CCC(=O)O)C(=O)O,647.55,7,"[1, 6, 8]",3,True,CHO,alcohol
5751,"3,3-dimethylpentanedioic acid",CC(C)(CC(=O)O)CC(=O)O,647.55,7,"[1, 6, 8]",3,True,CHO,alcohol
5752,"2,4-dimethylpentanedioic acid",CC(CC(C)C(=O)O)C(=O)O,649.9,7,"[1, 6, 8]",3,True,CHO,alcohol
5753,2-propan-2-ylbutanedioic acid,CC(C)C(CC(=O)O)C(=O)O,649.9,7,"[1, 6, 8]",3,True,CHO,alcohol
5754,2-(2-methylpropyl)propanedioic acid,CC(C)CC(C(=O)O)C(=O)O,649.9,7,"[1, 6, 8]",3,True,CHO,alcohol
5755,3-methylhexanedioic acid,CC(CCC(=O)O)CC(=O)O,650.34,7,"[1, 6, 8]",3,True,CHO,alcohol
5756,2-propan-2-ylidenebutanedioic acid,CC(=C(CC(=O)O)C(=O)O)C,654.7,7,"[1, 6, 8]",3,True,CHO,alkene
5757,3-[bis(2-hydroxyethyl)amino]propanenitrile,C(CN(CCO)CCO)C#N,658.64,7,"[1, 6, 7, 8]",4,True,CHON,alcohol
5758,2-(butylcarbamoylamino)acetic acid,CCCCNC(=O)NCC(=O)O,659.48,7,"[1, 6, 7, 8]",4,True,CHON,alcohol
5759,"3-(2-hydroxyethyl)-5,5-dimethylimidazolidine-2,4-dione",CC1(C(=O)N(C(=O)N1)CCO)C,659.82,7,"[1, 6, 7, 8]",4,True,CHON,amide
5760,"5-ethyl-1,3-bis(hydroxymethyl)-1,3,5-triazinan-2-one",CCN1CN(C(=O)N(C1)CO)CO,660.67,7,"[1, 6, 7, 8]",4,True,CHON,amide
5761,"cyclopentane-1,3-dicarboxylic acid",C1CC(CC1C(=O)O)C(=O)O,661.39,7,"[1, 6, 8]",3,True,CHO,alcohol
5762,2-amino-2-(hydroxymethyl)-4-methylpentanoic acid,CC(C)CC(CO)(C(=O)O)N,666.31,7,"[1, 6, 7, 8]",4,True,CHON,carboxylic_acid
5763,2-hydroxyethyl N-[2-(2-hydroxyethoxy)ethyl]carbamate,C(COCCO)NC(=O)OCCO,674.93,7,"[1, 6, 7, 8]",4,True,CHON,ester
5764,"5-prop-2-enyl-1,3-diazinane-2,4,6-trione",C=CCC1C(=O)NC(=O)NC1=O,676.55,7,"[1, 6, 7, 8]",4,True,CHON,alkene
5765,2-[(2-aminoacetyl)amino]-3-methylbutanoic acid,CC(C)C(C(=O)O)NC(=O)CN,680.96,7,"[1, 6, 7, 8]",4,True,CHON,carboxylic_acid
5766,1-benzyl-2-methylhydrazine,CNNCC1=CC=CC=C1,275.65,8,"[1, 6, 7]",3,True,CHN,aromatic
5767,2-hydroperoxy-2-(2-hydroperoxybutan-2-ylperoxy)butane,CCC(C)(OO)OOC(C)(CC)OO,292.15,8,"[1, 6, 8]",3,True,CHO,ester
5768,4-[butyl(nitroso)amino]butanoic acid,CCCCN(CCCC(=O)O)N=O,308.75,8,"[1, 6, 7, 8]",4,True,CHON,alcohol
5769,N-butyl-N-(2-oxobutyl)nitrous amide,CCCCN(CC(=O)CC)N=O,317.85,8,"[1, 6, 7, 8]",4,True,CHON,ketone
5770,1-ethoxycyclohexene,CCOC1=CCCCC1,320.65,8,"[1, 6, 8]",3,True,CHO,ester
5771,2-(2-azaspiro[3.3]heptan-2-yl)ethanamine,C1CC2(C1)CN(C2)CCN,320.65,8,"[1, 6, 7]",3,True,CHN,amine
5772,hex-1-en-3-yl acetate,CCCC(C=C)OC(=O)C,322.65,8,"[1, 6, 8]",3,True,CHO,ester
5773,4-(3-carboxypropanoylperoxy)-4-oxobutanoic acid,C(CC(=O)OOC(=O)CCC(=O)O)C(=O)O,326.15,8,"[1, 6, 8]",3,True,CHO,alcohol
5774,"1,1-dimethoxycyclohexane",COC1(CCCCC1)OC,327.15,8,"[1, 6, 8]",3,True,CHO,ester
5775,"(1Z,3Z)-cycloocta-1,3-diene",C1C/C=C\C=C/CC1,327.15,8,"[1, 6]",2,True,CH,alkene
5776,"N,N',N'-triethylethane-1,2-diamine",CCNCCN(CC)CC,327.65,8,"[1, 6, 7]",3,True,CHN,amine
5777,ethyl 4-methylpent-2-enoate,CCOC(=O)C=CC(C)C,331.4,8,"[1, 6, 8]",3,True,CHO,ester
5778,ethyl 2-pyrrolidin-1-ylacetate,CCOC(=O)CN1CCCC1,332.4,8,"[1, 6, 7, 8]",4,True,CHON,ester
5779,N-butyl-N-(4-hydroxybutyl)nitrous amide,CCCCN(CCCCO)N=O,333.15,8,"[1, 6, 7, 8]",4,True,CHON,alcohol
5780,"1-N,1-N,3-N,3-N-tetramethylbut-1-ene-1,3-diamine",CC(C=CN(C)C)N(C)C,337.15,8,"[1, 6, 7]",3,True,CHN,alkene
5781,2-hexyloxirane,CCCCCCC1CO1,338.15,8,"[1, 6, 8]",3,True,CHO,ester
5782,"1,3,6,8-tetrazatricyclo[4.4.1.13,8]dodecane",C1CN2CN3CCN(C2)CN1C3,338.55,8,"[1, 6, 7]",3,True,CHN,amine
5783,2-anilino-2-oxoacetic acid,C1=CC=C(C=C1)NC(=O)C(=O)O,338.65,8,"[1, 6, 7, 8]",4,True,CHON,carboxylic_acid
5784,"1,1-diethoxybut-2-yne",CCOC(C#CC)OCC,339.15,8,"[1, 6, 8]",3,True,CHO,ester
5785,tert-butyl 2-methylpropaneperoxoate,CC(C)C(=O)OOC(C)(C)C,341.45,8,"[1, 6, 8]",3,True,CHO,ester
5786,"5,10-dioxatricyclo[7.1.0.04,6]decane",C1CC2C(O2)CCC3C1O3,343.15,8,"[1, 6, 8]",3,True,CHO,ester
5787,"2-ethyl-5,5-dimethyl-1,3-dioxane",CCC1OCC(CO1)(C)C,349.15,8,"[1, 6, 8]",3,True,CHO,ester
5788,2-ethoxy-4-methyloxane,CCOC1CC(CCO1)C,350.3,8,"[1, 6, 8]",3,True,CHO,ester
5789,methyl 2-methylhexanoate,CCCCC(C)C(=O)OC,350.65,8,"[1, 6, 8]",3,True,CHO,ester
5790,"2,3-dimethylcyclohexan-1-one",CC1CCCC(=O)C1C,351.15,8,"[1, 6, 8]",3,True,CHO,ketone
5791,"(E)-N,N'-diethylbut-2-ene-1,4-diamine",CCNC/C=C/CNCC,354.65,8,"[1, 6, 7]",3,True,CHN,alkene
5792,(E)-oct-2-enal,CCCCC/C=C/C=O,356.15,8,"[1, 6, 8]",3,True,CHO,alkene
5793,"4,5-dimethylcyclohex-2-en-1-one",CC1CC(=O)C=CC1C,357.15,8,"[1, 6, 8]",3,True,CHO,alkene
5794,dimethyl 2-acetylbutanedioate,CC(=O)C(CC(=O)OC)C(=O)OC,357.15,8,"[1, 6, 8]",3,True,CHO,ester
5795,2-pyrrolidin-1-ylethyl acetate,CC(=O)OCCN1CCCC1,358.65,8,"[1, 6, 7, 8]",4,True,CHON,ester
5796,"(3E)-6-methylhepta-3,5-dien-2-one",CC(=C/C=C/C(=O)C)C,359.65,8,"[1, 6, 8]",3,True,CHO,alkene
5797,1-(furan-2-yl)-2-methylpropan-1-one,CC(C)C(=O)C1=CC=CO1,359.65,8,"[1, 6, 8]",3,True,CHO,aromatic
5798,[(E)-1-acetyloxybut-2-enyl] acetate,C/C=C/C(OC(=O)C)OC(=O)C,363.65,8,"[1, 6, 8]",3,True,CHO,ester
5799,4-(diethylamino)butan-1-ol,CCN(CC)CCCCO,364.15,8,"[1, 6, 7, 8]",4,True,CHON,alcohol
5800,N-cyclopropylcyclopentanamine,C1CCC(C1)NC2CC2,365.15,8,"[1, 6, 7]",3,True,CHN,amine
5801,N-tert-butyl-2-methylpropan-2-amine,CC(C)(C)NC(C)(C)C,366.65,8,"[1, 6, 7]",3,True,CHN,amine
5802,1-isocyanato-2-methoxybenzene,COC1=CC=CC=C1N=C=O,367.85,8,"[1, 6, 7, 8]",4,True,CHON,ester
5803,"3,4-dimethylidenehexa-1,5-diene",C=CC(=C)C(=C)C=C,369.12,8,"[1, 6]",2,True,CH,alkene
5804,"2-[2-(2-methoxyethoxy)ethoxy]-1,3-dioxolane",COCCOCCOC1OCCO1,369.15,8,"[1, 6, 8]",3,True,CHO,ester
5805,oct-3-yn-1-ol,CCCCC#CCCO,370.15,8,"[1, 6, 8]",3,True,CHO,alkyne
5806,"(3E,5E)-octa-3,5-dien-1,7-diyne",C#C/C=C/C=C/C#C,371.2,8,"[1, 6]",2,True,CH,alkene
5807,5-methylhept-1-yne,CCC(C)CCC#C,372.32,8,"[1, 6]",2,True,CH,alkyne
5808,"pentacyclo[3.3.0.02,4.03,7.06,8]octane",C12C3C4C3C5C4C1C25,372.44,8,"[1, 6]",2,True,CH,alkane
5809,"2,3,3-trimethylpenta-1,4-diene",CC(=C)C(C)(C)C=C,372.65,8,"[1, 6]",2,True,CH,alkene
5810,(2-hydroxyphenyl) N-methylcarbamate,CNC(=O)OC1=CC=CC=C1O,374.15,8,"[1, 6, 7, 8]",4,True,CHON,ester
5811,N-butyl-N-(1-hydroperoxybutyl)nitrous amide,CCCCN(C(CCC)OO)N=O,374.75,8,"[1, 6, 7, 8]",4,True,CHON,ester
5812,"1-ethyl-2,5-dimethylpyrrole",CCN1C(=CC=C1C)C,375.15,8,"[1, 6, 7]",3,True,CHN,aromatic
5813,"ethyl 3,3-dimethylbutanoate",CCOC(=O)CC(C)(C)C,375.15,8,"[1, 6, 8]",3,True,CHO,ester
5814,3-ethyl-3-methylpent-1-yne,CCC(C)(CC)C#C,375.2,8,"[1, 6]",2,True,CH,alkyne
5815,"(E)-2,5-dimethylhex-3-ene",CC(C)/C=C/C(C)C,375.21134,8,"[1, 6]",2,True,CH,alkene
5816,"2,3,4-trimethylpenta-1,4-diene",CC(C(=C)C)C(=C)C,375.32,8,"[1, 6]",2,True,CH,alkene
5817,4-(2-aminoethyl)aniline,C1=CC(=CC=C1CCN)N,376.15,8,"[1, 6, 7]",3,True,CHN,aromatic
5818,4-ethylhex-3-en-1-yne,CCC(=CC#C)CC,376.8,8,"[1, 6]",2,True,CH,alkene
5819,6-methylhept-5-en-1-yne,CC(=CCCC#C)C,376.8,8,"[1, 6]",2,True,CH,alkene
5820,(Z)-oct-3-en-1-yne,CCCC/C=C\C#C,376.92,8,"[1, 6]",2,True,CH,alkene
5821,(E)-oct-3-en-1-yne,CCCC/C=C/C#C,376.92,8,"[1, 6]",2,True,CH,alkene
5822,"3,5-dimethylhex-1-ene",CC(C)CC(C)C=C,377.15,8,"[1, 6]",2,True,CH,alkene
5823,"2,4-dimethyl-3-methylidenepentane",CC(C)C(=C)C(C)C,377.15,8,"[1, 6]",2,True,CH,alkene
5824,"3-methylidenetetracyclo[3.2.0.02,7.04,6]heptane",C=C1C2C3C2C4C3C41,378.07,8,"[1, 6]",2,True,CH,alkene
5825,[3-(hydroxymethyl)cyclohexyl]methanol,C1CC(CC(C1)CO)CO,378.65,8,"[1, 6, 8]",3,True,CHO,alcohol
5826,"(E)-4,4-dimethylhex-2-ene",CCC(C)(C)/C=C/C,379.15,8,"[1, 6]",2,True,CH,alkene
5827,"3-ethynyl-1,1-dimethylcyclobutane",CC1(CC(C1)C#C)C,379.34,8,"[1, 6]",2,True,CH,alkyne
5828,"(3E)-5-methylhepta-1,3,6-triene",CC(C=C)/C=C/C=C,379.72,8,"[1, 6]",2,True,CH,alkene
5829,"(3E)-2,5-dimethylhexa-1,3,5-triene",CC(=C)/C=C/C(=C)C,379.92,8,"[1, 6]",2,True,CH,alkene
5830,"3-ethenyl-4-methylpenta-1,3-diene",CC(=C(C=C)C=C)C,379.92,8,"[1, 6]",2,True,CH,alkene
5831,"(4E)-2,3-dimethylhexa-1,4-diene",C/C=C/C(C)C(=C)C,380.15,8,"[1, 6]",2,True,CH,alkene
5832,"butane-1,2,3,4-tetracarboxylic acid",C(C(C(CC(=O)O)C(=O)O)C(=O)O)C(=O)O,380.15,8,"[1, 6, 8]",3,True,CHO,alcohol
5833,"N-butyl-N-(2,4-dihydroxybutyl)nitrous amide",CCCCN(CC(CCO)O)N=O,380.15,8,"[1, 6, 7, 8]",4,True,CHON,alcohol
5834,"(3E)-5,5-dimethylhexa-1,3-diene",CC(C)(C)/C=C/C=C,380.25,8,"[1, 6]",2,True,CH,alkene
5835,"4,4-dimethylhex-1-ene",CCC(C)(C)CC=C,380.35,8,"[1, 6]",2,True,CH,alkene
5836,"1,5-dimethyl-3-methylidenetricyclo[2.1.0.02,5]pentane",CC12C3C1(C2C3=C)C,380.75,8,"[1, 6]",2,True,CH,alkene
5837,"octa-1,3,5,7-tetrayne",C#CC#CC#CC#C,380.88,8,"[1, 6]",2,True,CH,alkyne
5838,"2,2,5,5-tetramethylpyrrolidine",CC1(CCC(N1)(C)C)C,381.15,8,"[1, 6, 7]",3,True,CHN,amine
5839,"(E)-3,5-dimethylhex-2-ene",C/C=C(\C)/CC(C)C,382.15,8,"[1, 6]",2,True,CH,alkene
5840,"4,5-dimethylhex-1-ene",CC(C)C(C)CC=C,382.15,8,"[1, 6]",2,True,CH,alkene
5841,"1,3-bis(ethenyl)cyclobutane",C=CC1CC(C1)C=C,382.34,8,"[1, 6]",2,True,CH,alkene
5842,"5,6,7,8-tetrahydroquinoxaline",C1CCC2=NC=CN=C2C1,382.65,8,"[1, 6, 7]",3,True,CHN,aromatic
5843,"(Z)-4,5-dimethylhex-2-ene",C/C=C\C(C)C(C)C,382.95,8,"[1, 6]",2,True,CH,alkene
5844,4-ethylhex-1-ene,CCC(CC)CC=C,383.15,8,"[1, 6]",2,True,CH,alkene
5845,"tetracyclo[3.3.0.02,8.04,6]octane",C1C2C3C2C4C1C4C3,383.18,8,"[1, 6]",2,True,CH,alkane
5846,"(3E)-3-ethylhexa-1,3-diene",CC/C=C(\CC)/C=C,383.36,8,"[1, 6]",2,True,CH,alkene
5847,"(4E)-4-methylhepta-1,4-diene",CC/C=C(\C)/CC=C,383.36,8,"[1, 6]",2,True,CH,alkene
5848,"(3E)-4-methylhepta-1,3-diene",CCC/C(=C/C=C)/C,383.36,8,"[1, 6]",2,True,CH,alkene
5849,"(5E)-2-methylhepta-1,5-diene",C/C=C/CCC(=C)C,383.36,8,"[1, 6]",2,True,CH,alkene
5850,2-methyl-4-methylidenehexane,CCC(=C)CC(C)C,383.45,8,"[1, 6]",2,True,CH,alkene
5851,"(6E)-octa-1,6-diene",C/C=C/CCCC=C,383.48,8,"[1, 6]",2,True,CH,alkene
5852,"(E)-5,5-dimethylhex-2-ene",C/C=C/CC(C)(C)C,383.57,8,"[1, 6]",2,True,CH,alkene
5853,"2,4-dimethylhex-1-ene",CCC(C)CC(=C)C,384.35,8,"[1, 6]",2,True,CH,alkene
5854,"1,1,2,2-tetramethyl-3-methylidenecyclopropane",CC1(C(=C)C1(C)C)C,384.35,8,"[1, 6]",2,True,CH,alkene
5855,3-(1-ethoxyethoxy)but-1-yne,CCOC(C)OC(C)C#C,385.15,8,"[1, 6, 8]",3,True,CHO,ester
5856,"2,2,5,5-tetramethyloxolane",CC1(CCC(O1)(C)C)C,385.15,8,"[1, 6, 8]",3,True,CHO,ester
5857,2-methylhept-3-ene,CCCC=CC(C)C,385.15,8,"[1, 6]",2,True,CH,alkene
5858,(E)-5-methylhept-3-ene,CC/C=C/C(C)CC,385.15,8,"[1, 6]",2,True,CH,alkene
5859,(Z)-2-methylhept-3-ene,CCC/C=C\C(C)C,385.15,8,"[1, 6]",2,True,CH,alkene
5860,"(E)-3,4,4-trimethylpent-2-ene",C/C=C(\C)/C(C)(C)C,385.15,8,"[1, 6]",2,True,CH,alkene
5861,"3-ethenyl-1,1-dimethylcyclobutane",CC1(CC(C1)C=C)C,385.9,8,"[1, 6]",2,True,CH,alkene
5862,2-methyl-3-methylidenehexane,CCCC(=C)C(C)C,386.15,8,"[1, 6]",2,True,CH,alkene
5863,(E)-4-ethylhex-2-ene,CCC(CC)/C=C/C,386.15,8,"[1, 6]",2,True,CH,alkene
5864,"(E)-2,3-dimethylhex-3-ene",CC/C=C(\C)/C(C)C,386.24,8,"[1, 6]",2,True,CH,alkene
5865,(E)-5-methylhept-2-ene,CCC(C)C/C=C/C,386.36,8,"[1, 6]",2,True,CH,alkene
5866,2-ethenoxyethyl 2-methylprop-2-enoate,CC(=C)C(=O)OCCOC=C,386.4,8,"[1, 6, 8]",3,True,CHO,ester
5867,(E)-4-methylhept-2-ene,CCCC(C)/C=C/C,387.1,8,"[1, 6]",2,True,CH,alkene
5868,(E)-2-methylhept-3-ene,CCC/C=C/C(C)C,387.13,8,"[1, 6]",2,True,CH,alkene
5869,[4-(aminomethyl)cyclohexyl]methanamine,C1CC(CCC1CN)CN,387.15,8,"[1, 6, 7]",3,True,CHN,amine
5870,"(3E)-6-methylhepta-1,3,5-triene",CC(=C/C=C/C=C)C,387.52,8,"[1, 6]",2,True,CH,alkene
5871,"(3E,5E)-5-methylhepta-1,3,5-triene",C/C=C(\C)/C=C/C=C,387.52,8,"[1, 6]",2,True,CH,alkene
5872,2-[(2-methylpropan-2-yl)oxy]butane,CCC(C)OC(C)(C)C,387.65,8,"[1, 6, 8]",3,True,CHO,ester
5873,3-ethyl-2-methylpent-2-ene,CCC(=C(C)C)CC,387.9,8,"[1, 6]",2,True,CH,alkene
5874,prop-2-ynylcyclopentane,C#CCC1CCCC1,388.04,8,"[1, 6]",2,True,CH,alkyne
5875,(E)-6-methylhept-3-ene,CC/C=C/CC(C)C,388.15,8,"[1, 6]",2,True,CH,alkene
5876,2-methylhept-1-en-3-yne,CCCC#CC(=C)C,388.2,8,"[1, 6]",2,True,CH,alkene
5877,oct-1-en-4-yne,CCCC#CCC=C,388.32,8,"[1, 6]",2,True,CH,alkene
5878,"2,2-dimethylhex-3-yne",CCC#CC(C)(C)C,388.41,8,"[1, 6]",2,True,CH,alkyne
5879,"5,5-dimethylhex-2-yne",CC#CCC(C)(C)C,388.41,8,"[1, 6]",2,True,CH,alkyne
5880,3-methylbutan-2-ylcyclopropane,CC(C)C(C)C1CC1,388.64,8,"[1, 6]",2,True,CH,alkane
5881,1-ethynyl-1-prop-1-ynylcyclopropane,CC#CC1(CC1)C#C,388.74,8,"[1, 6]",2,True,CH,alkyne
5882,"(5E)-4-methylhepta-1,5-diene",C/C=C/C(C)CC=C,388.97729,8,"[1, 6]",2,True,CH,alkene
5883,"1,2-diethylcyclobutane",CCC1CCC1CC,388.98,8,"[1, 6]",2,True,CH,alkane
5884,"6-methyltricyclo[4.1.0.02,7]hept-3-ene",CC12CC=CC3C1C23,389.05,8,"[1, 6]",2,True,CH,alkene
5885,"1-methyltricyclo[4.1.0.02,7]hept-3-ene",CC12C3C1C2C=CC3,389.05,8,"[1, 6]",2,True,CH,alkene
5886,5-methylidenebicyclo[2.2.1]hept-2-ene,C=C1CC2CC1C=C2,389.15,8,"[1, 6]",2,True,CH,alkene
5887,N-tert-butylbutan-1-amine,CCCCNC(C)(C)C,389.15,8,"[1, 6, 7]",3,True,CHN,amine
5888,3-ethylhex-3-ene,CCC=C(CC)CC,389.15,8,"[1, 6]",2,True,CH,alkene
5889,"(E)-3,4-dimethylhex-2-ene",CCC(C)/C(=C/C)/C,389.15,8,"[1, 6]",2,True,CH,alkene
5890,"octa-1,3,7-trien-5-yne",C=CC=CC#CC=C,389.16,8,"[1, 6]",2,True,CH,alkene
5891,"(E)-N,N-diethylbut-1-en-3-yn-1-amine",CCN(CC)/C=C/C#C,389.36,8,"[1, 6, 7]",3,True,CHN,alkene
5892,5-methylbicyclo[2.2.1]hept-2-ene,CC1CC2CC1C=C2,389.4,8,"[1, 6]",2,True,CH,alkene
5893,"2,5-dimethylhexa-1,4-diene",CC(=CCC(=C)C)C,389.7,8,"[1, 6]",2,True,CH,alkene
5894,"1-methyltricyclo[4.1.0.02,7]heptane",CC12C3C1C2CCC3,389.89,8,"[1, 6]",2,True,CH,alkane
5895,"2-methyltricyclo[4.1.0.02,7]heptane",CC12CCCC3C1C23,389.89,8,"[1, 6]",2,True,CH,alkane
5896,3-methylbut-1-en-2-ylcyclopropane,CC(C)C(=C)C1CC1,389.96,8,"[1, 6]",2,True,CH,alkene
5897,"(4E)-2,3-dimethylhexa-2,4-diene",C/C=C/C(=C(C)C)C,390.72,8,"[1, 6]",2,True,CH,alkene
5898,"(4Z)-2,4-dimethylhexa-2,4-diene",C/C=C(/C)\C=C(C)C,390.72,8,"[1, 6]",2,True,CH,alkene
5899,"(4E)-2,4-dimethylhexa-2,4-diene",C/C=C(\C)/C=C(C)C,390.72,8,"[1, 6]",2,True,CH,alkene
5900,"2,5-dimethylhex-3-yne",CC(C)C#CC(C)C,390.76,8,"[1, 6]",2,True,CH,alkyne
5901,(E)-6-methylhept-2-ene,C/C=C/CCC(C)C,390.88125,8,"[1, 6]",2,True,CH,alkene
5902,pentan-2-ylcyclopropane,CCCC(C)C1CC1,390.89,8,"[1, 6]",2,True,CH,alkane
5903,6-methylcyclohex-3-ene-1-carbaldehyde,CC1CC=CCC1C=O,391.0,8,"[1, 6, 8]",3,True,CHO,alkene
5904,6-methylhept-2-yne,CC#CCCC(C)C,391.2,8,"[1, 6]",2,True,CH,alkyne
5905,6-methylhept-3-yne,CCC#CCC(C)C,391.2,8,"[1, 6]",2,True,CH,alkyne
5906,5-methylhept-3-yne,CCC#CC(C)CC,391.2,8,"[1, 6]",2,True,CH,alkyne
5907,3-[(2-methylpropan-2-yl)oxy]but-1-yne,CC(C#C)OC(C)(C)C,391.51,8,"[1, 6, 8]",3,True,CHO,ester
5908,"1,2,4-trimethylcyclopentene",CC1CC(=C(C1)C)C,392.09513,8,"[1, 6]",2,True,CH,alkene
5909,"(4E)-octa-1,4-diene",CCC/C=C/CC=C,392.15,8,"[1, 6]",2,True,CH,alkene
5910,"3,3-dimethylcyclohexene",CC1(CCCC=C1)C,392.15,8,"[1, 6]",2,True,CH,alkene
5911,"tricyclo[3.3.0.02,8]octa-3,6-diene",C1=CC2C3C2C1C=C3,392.24,8,"[1, 6]",2,True,CH,alkene
5912,"tricyclo[4.2.0.02,5]octa-3,7-diene",C1=CC2C1C3C2C=C3,392.24,8,"[1, 6]",2,True,CH,alkene
5913,"tricyclo[5.1.0.02,8]octa-3,5-diene",C1=CC2C3C2C3C=C1,392.24,8,"[1, 6]",2,True,CH,alkene
5914,"6-methylhepta-1,5-diene",CC(=CCCC=C)C,392.3,8,"[1, 6]",2,True,CH,alkene
5915,ethynylcyclohexane,C#CC1CCCCC1,392.31,8,"[1, 6]",2,True,CH,alkyne
5916,"(E)-3,4-dimethylhex-3-ene",CC/C(=C(\C)/CC)/C,392.4,8,"[1, 6]",2,True,CH,alkene
5917,"methyl 2,5-dimethoxy-2H-furan-5-carboxylate",COC1C=CC(O1)(C(=O)OC)OC,392.65,8,"[1, 6, 8]",3,True,CHO,ester
5918,2-tert-butylfuran,CC(C)(C)C1=CC=CO1,392.7,8,"[1, 6, 8]",3,True,CHO,aromatic
5919,"tricyclo[3.2.1.02,4]oct-6-ene",C1C2C=CC1C3C2C3,393.08,8,"[1, 6]",2,True,CH,alkene
5920,"tricyclo[3.3.0.02,8]oct-3-ene",C1CC2C3C2C1C=C3,393.08,8,"[1, 6]",2,True,CH,alkene
5921,"tricyclo[4.2.0.02,5]oct-3-ene",C1CC2C1C3C2C=C3,393.08,8,"[1, 6]",2,True,CH,alkene
5922,"tricyclo[5.1.0.02,8]oct-4-ene",C1C=CCC2C3C1C23,393.08,8,"[1, 6]",2,True,CH,alkene
5923,"tricyclo[5.1.0.02,8]oct-3-ene",C1CC2C3C2C3C=C1,393.08,8,"[1, 6]",2,True,CH,alkene
5924,"octa-1,3,7-triene",C=CCCC=CC=C,393.15,8,"[1, 6]",2,True,CH,alkene
5925,methyl 4-amino-2-hydroxybenzoate,COC(=O)C1=C(C=C(C=C1)N)O,393.15,8,"[1, 6, 7, 8]",4,True,CHON,ester
5926,1-ethyl-2-methylcyclopentane,CCC1CCCC1C,393.25,8,"[1, 6]",2,True,CH,alkane
5927,3-methylhept-3-ene,CCCC=C(C)CC,393.65351,8,"[1, 6]",2,True,CH,alkene
5928,3-prop-2-enylcyclopentene,C=CCC1CCC=C1,393.76,8,"[1, 6]",2,True,CH,alkene
5929,"tricyclo[3.3.0.02,8]octane",C1CC2C3C2C1CC3,393.92,8,"[1, 6]",2,True,CH,alkane