,Name,SMILES,Tb,C Atom,Atom,Count Unique Atom,Pass Screen,Atom2,Func. Group
1678,"2-Butenoic Acid, Anhydride",C/C=C/C(=O)OC(=O)/C=C/C,520.15,8,"[1, 6, 8]",3,True,CHO,alkene
1679,2-Hydroxy-4-Methoxybenzaldehyde,COC1=CC(=C(C=C1)C=O)O,520.65,8,"[1, 6, 8]",3,True,CHO,ester
1680,P-Butylphenol,CCCCC1=CC=C(C=C1)O,521.15,10,"[1, 6, 8]",3,True,CHO,aromatic
1681,3-Butylphenol,CCCCC1=CC(=CC=C1)O,521.15,10,"[1, 6, 8]",3,True,CHO,aromatic
1682,"Phenol, 4-(1,1-Dimethylethyl)-2,6-Dimethyl-",CC1=CC(=CC(=C1O)C)C(C)(C)C,521.15,12,"[1, 6, 8]",3,True,CHO,aromatic
1683,"10-Undecenoic Acid, Methyl Ester",COC(=O)CCCCCCCCC=C,521.15,12,"[1, 6, 8]",3,True,CHO,ester
1684,"1,3-Dioxolan-2-One",C1COC(=O)O1,521.15,3,"[1, 6, 8]",3,True,CHO,ester
1685,P-Anisaldehyde,COC1=CC=C(C=C1)C=O,521.15,8,"[1, 6, 8]",3,True,CHO,ester
1686,"Benzaldehyde, 2-Ethoxy-",CCOC1=CC=CC=C1C=O,521.15,9,"[1, 6, 8]",3,True,CHO,ester
1687,3-Methoxy-Benzoic Acid Methyl Ester,COC1=CC=CC(=C1)C(=O)OC,521.15,9,"[1, 6, 8]",3,True,CHO,ester
1688,Undec-9-En-1-Ol,CC=CCCCCCCCCO,521.65,11,"[1, 6, 8]",3,True,CHO,alkene
1689,"Benzenemethanol, 4-(1-Methylethyl)-",CC(C)C1=CC=C(C=C1)CO,522.15,10,"[1, 6, 8]",3,True,CHO,aromatic
1690,"2-(1,1-Dimethylethyl)-4,6-Dimethylphenol",CC1=CC(=C(C(=C1)C(C)(C)C)O)C,522.15,12,"[1, 6, 8]",3,True,CHO,aromatic
1691,O-Methoxybenzyl Alcohol,COC1=CC=CC=C1CO,522.15,8,"[1, 6, 8]",3,True,CHO,ester
1692,3h-Benzofuran-2-One,C1C2=CC=CC=C2OC1=O,522.15,8,"[1, 6, 8]",3,True,CHO,ester
1693,"Benzaldehyde, 4-Ethoxy-",CCOC1=CC=C(C=C1)C=O,522.15,9,"[1, 6, 8]",3,True,CHO,ester
1694,Benzoic Acid,C1=CC=C(C=C1)C(=O)O,522.3499999999999,7,"[1, 6, 8]",3,True,CHO,aromatic
1695,"Benzenepropanol, Formate",C1=CC=C(C=C1)CCCOC=O,523.15,10,"[1, 6, 8]",3,True,CHO,ester
1696,Decaprenoic Acid,CC(=CCC/C(=C/C(=O)O)/C)C,523.15,10,"[1, 6, 8]",3,True,CHO,alkene
1697,Tripropylene Glycol Methyl Ether,CC(CO)OCC(C)OCC(C)OC,523.15,10,"[1, 6, 8]",3,True,CHO,ester
1698,10-Undecen-1-Ol,C=CCCCCCCCCCO,523.15,11,"[1, 6, 8]",3,True,CHO,alkene
1699,"Propanoic Acid, 2-Methyl-, 2-Phenylethyl Ester",CC(C)C(=O)OCCC1=CC=CC=C1,523.15,12,"[1, 6, 8]",3,True,CHO,ester
1700,"Pentanedioic Acid, 3-Oxo-, Diethyl Ester",CCOC(=O)CC(=O)CC(=O)OCC,523.15,9,"[1, 6, 8]",3,True,CHO,ester
1701,Butyl Benzoate,CCCCOC(=O)C1=CC=CC=C1,523.45,11,"[1, 6, 8]",3,True,CHO,ester
1702,4-Pentylphenol,CCCCCC1=CC=C(C=C1)O,523.65,11,"[1, 6, 8]",3,True,CHO,aromatic
1703,"Butanedioic Acid, Dipropyl Ester",CCCOC(=O)CCC(=O)OCCC,523.95,10,"[1, 6, 8]",3,True,CHO,ester
1704,"Butanoic Acid, 2-Phenoxyethyl Ester",CCCC(=O)OCCOC1=CC=CC=C1,524.15,12,"[1, 6, 8]",3,True,CHO,ester
1705,"1,2-Benzenediol, 4-Methyl-",CC1=CC(=C(C=C1)O)O,524.15,7,"[1, 6, 8]",3,True,CHO,aromatic
1706,"Gamma-2,6-Dimethylpyrone",CC1=CC(=O)C=C(O1)C,524.15,7,"[1, 6, 8]",3,True,CHO,aromatic
1707,1-p-Tolyl-Butan-1-One,CCCC(=O)C1=CC=C(C=C1)C,524.65,11,"[1, 6, 8]",3,True,CHO,aromatic
1708,"Propanedioic Acid, Dibutyl Ester",CCCCOC(=O)CC(=O)OCCCC,524.65,11,"[1, 6, 8]",3,True,CHO,ester
1709,"2-Propenal, 2-Methyl-3-Phenyl-",C/C(=C\C1=CC=CC=C1)/C=O,524.75,10,"[1, 6, 8]",3,True,CHO,alkene
1710,"2-Propen-1-Ol, 3-Phenyl-, Formate",C1=CC=C(C=C1)/C=C/COC=O,525.15,10,"[1, 6, 8]",3,True,CHO,ester
1711,2-Dodecanol,CCCCCCCCCCC(C)O,525.15,12,"[1, 6, 8]",3,True,CHO,alcohol
1712,P-Hydroxybenzyl Alcohol,C1=CC(=CC=C1CO)O,525.15,7,"[1, 6, 8]",3,True,CHO,aromatic
1713,(3-Methoxy-Phenyl)-Methanol,COC1=CC=CC(=C1)CO,525.15,8,"[1, 6, 8]",3,True,CHO,ester
1714,Isosafrole,C/C=C/C1=CC2=C(C=C1)OCO2,526.15,10,"[1, 6, 8]",3,True,CHO,ester
1715,"1,3-Dioxane, 2-Phenyl-",C1COC(OC1)C2=CC=CC=C2,526.15,10,"[1, 6, 8]",3,True,CHO,ester
1716,2-Ethoxycarbonyl-Malonic Acid Diethyl Ester,CCOC(=O)C(C(=O)OCC)C(=O)OCC,526.15,10,"[1, 6, 8]",3,True,CHO,ester
1717,P-Methoxyphenol,COC1=CC=C(C=C1)O,526.15,7,"[1, 6, 8]",3,True,CHO,ester
1718,5-Indanol,C1CC2=C(C1)C=C(C=C2)O,526.15,9,"[1, 6, 8]",3,True,CHO,aromatic
1719,P-Isopropylacetophenone,CC(C)C1=CC=C(C=C1)C(=O)C,527.15,11,"[1, 6, 8]",3,True,CHO,aromatic
1720,Diethyl Pimelate,CCOC(=O)CCCCCC(=O)OCC,527.15,11,"[1, 6, 8]",3,True,CHO,ester
1721,Nonanoic Acid,CCCCCCCCC(=O)O,527.65,9,"[1, 6, 8]",3,True,CHO,alcohol
1722,Methyleugenol,COC1=C(C=C(C=C1)CC=C)OC,527.8499999999999,11,"[1, 6, 8]",3,True,CHO,ester
1723,Eugenol,COC1=C(C=CC(=C1)CC=C)O,528.15,10,"[1, 6, 8]",3,True,CHO,ester
1724,"Butanedioic Acid, Acetyl-, Diethyl Ester",CCOC(=O)CC(C(=O)C)C(=O)OCC,528.15,10,"[1, 6, 8]",3,True,CHO,ester
1725,(4-Methoxy-Phenyl)-Acetaldehyde,COC1=CC=C(C=C1)CC=O,528.65,9,"[1, 6, 8]",3,True,CHO,ester
1726,"Benzene, 1,3,5-Trimethoxy-",COC1=CC(=CC(=C1)OC)OC,528.65,9,"[1, 6, 8]",3,True,CHO,ester
1727,Ethoxytriethylene Glycol,CCOCCOCCOCCO,528.95,8,"[1, 6, 8]",3,True,CHO,ester
1728,"2,6-Dipropyl-Phenol",CCCC1=C(C(=CC=C1)CCC)O,529.15,12,"[1, 6, 8]",3,True,CHO,aromatic
1729,"Phenol, 2,6-Bis(1-Methylethyl)-",CC(C)C1=C(C(=CC=C1)C(C)C)O,529.15,12,"[1, 6, 8]",3,True,CHO,aromatic
1730,"Butanedioic Acid, Bis(1-Methylpropyl) Ester",CCC(C)OC(=O)CCC(=O)OC(C)CC,529.15,12,"[1, 6, 8]",3,True,CHO,ester
1731,Diethylene Glycol Dibutyl Ether,CCCCOCCOCCOCCCC,529.15,12,"[1, 6, 8]",3,True,CHO,ester
1732,Ethylene Glycol Monobenzyl Ether,C1=CC=C(C=C1)COCCO,529.15,9,"[1, 6, 8]",3,True,CHO,ester
1733,"P-Anisic Acid, Methyl Ester",COC1=CC=C(C=C1)C(=O)OC,529.15,9,"[1, 6, 8]",3,True,CHO,ester
1734,"Benzeneacetic Acid, .alpha.-Oxo-, Ethyl Ester",CCOC(=O)C(=O)C1=CC=CC=C1,529.65,10,"[1, 6, 8]",3,True,CHO,ester
1735,P-Methoxyacetophenone,CC(=O)C1=CC=C(C=C1)OC,531.15,9,"[1, 6, 8]",3,True,CHO,ester
1736,Diphenyl Ether,C1=CC=C(C=C1)OC2=CC=CC=C2,531.15,12,"[1, 6, 8]",3,True,CHO,ester
1737,1-(3-Methoxy-Phenyl)-Propan-1-One,CCC(=O)C1=CC(=CC=C1)OC,532.15,10,"[1, 6, 8]",3,True,CHO,ester
1738,Dimethyl Hexahydroterephthalate,COC(=O)C1CCC(CC1)C(=O)OC,532.15,10,"[1, 6, 8]",3,True,CHO,ester
1739,Dodecanol,CCCCCCCCCCCCO,532.15,12,"[1, 6, 8]",3,True,CHO,alcohol
1740,"1,2,3-Propanetriol, Diacetate",CC(=O)OCC(CO)OC(=O)C,532.15,7,"[1, 6, 8]",3,True,CHO,ester
1741,O-Toluic Acid,CC1=CC=CC=C1C(=O)O,532.15,8,"[1, 6, 8]",3,True,CHO,aromatic
1742,Triacetin,CC(=O)OCC(COC(=O)C)OC(=O)C,532.15,9,"[1, 6, 8]",3,True,CHO,ester
1743,P-Methoxybenzyl Alcohol,COC1=CC=C(C=C1)CO,532.25,8,"[1, 6, 8]",3,True,CHO,ester
1744,Cyclobutyl-Phenyl-Methanone,C1CC(C1)C(=O)C2=CC=CC=C2,533.15,11,"[1, 6, 8]",3,True,CHO,aromatic
1745,Diglycidyl Ether,C1C(O1)COCC2CO2,533.15,6,"[1, 6, 8]",3,True,CHO,ester
1746,"Cinnamic Acid, Methyl Ester",COC(=O)/C=C/C1=CC=CC=C1,533.55,10,"[1, 6, 8]",3,True,CHO,ester
1747,"Benzoic Acid, 3-Methoxy-, Ethyl Ester",CCOC(=O)C1=CC(=CC=C1)OC,533.65,10,"[1, 6, 8]",3,True,CHO,ester
1748,Dipropyl Glutarate,CCCOC(=O)CCCC(=O)OCCC,533.75,11,"[1, 6, 8]",3,True,CHO,ester
1749,Methyl Styryl Ketone,CC(=O)/C=C/C1=CC=CC=C1,534.15,10,"[1, 6, 8]",3,True,CHO,alkene
1750,"Benzoic Acid, 2-Methoxy-, Ethyl Ester",CCOC(=O)C1=CC=CC=C1OC,534.15,10,"[1, 6, 8]",3,True,CHO,ester
1751,"Benzoic Acid, 2-Hydroxy-, 2-Methylpropyl Ester",CC(C)COC(=O)C1=CC=CC=C1O,534.15,11,"[1, 6, 8]",3,True,CHO,ester
1752,"Benzene, (cyclohexyloxy)-",C1CCC(CC1)OC2=CC=CC=C2,534.15,12,"[1, 6, 8]",3,True,CHO,ester
1753,"1-Butanol, 3-Methyl-, Benzoate",CC(C)CCOC(=O)C1=CC=CC=C1,534.15,12,"[1, 6, 8]",3,True,CHO,ester
1754,Succinic Anhydride,C1CC(=O)OC1=O,534.15,4,"[1, 6, 8]",3,True,CHO,ether
1755,"2,6-Dimethoxyphenol",COC1=C(C(=CC=C1)OC)O,534.15,8,"[1, 6, 8]",3,True,CHO,ester
1756,Alpha-Phenylpropionic Acid,CC(C1=CC=CC=C1)C(=O)O,534.15,9,"[1, 6, 8]",3,True,CHO,aromatic
1757,"1,3-Butanedione, 1-Phenyl-",CC(=O)CC(=O)C1=CC=CC=C1,534.65,10,"[1, 6, 8]",3,True,CHO,aromatic
1758,"1,7-Heptanediol",C(CCCO)CCCO,535.15,7,"[1, 6, 8]",3,True,CHO,alcohol
1759,"1,3-Propanediol, 2-Butyl-2-Ethyl-",CCCCC(CC)(CO)CO,535.15,9,"[1, 6, 8]",3,True,CHO,alcohol
1760,P-Tert-Amylphenol,CCC(C)(C)C1=CC=C(C=C1)O,535.65,11,"[1, 6, 8]",3,True,CHO,aromatic
1761,Indalone,CCCCOC(=O)C1=CC(=O)CC(O1)(C)C,536.15,12,"[1, 6, 8]",3,True,CHO,ester
1762,Piperonal,C1OC2=C(O1)C=C(C=C2)C=O,536.15,8,"[1, 6, 8]",3,True,CHO,ester
1763,"Benzaldehyde, 3-Ethoxy-2-Hydroxy-",CCOC1=CC=CC(=C1O)C=O,536.65,9,"[1, 6, 8]",3,True,CHO,ester
1764,"Phenol, 4-(1,1-Dimethylethyl)-2,5-Dimethyl-",CC1=CC(=C(C=C1O)C)C(C)(C)C,537.15,12,"[1, 6, 8]",3,True,CHO,aromatic
1765,"1,3-Benzenediol, 2-Methyl-",CC1=C(C=CC=C1O)O,537.15,7,"[1, 6, 8]",3,True,CHO,aromatic
1766,"1,7-Octanediol, 3,7-Dimethyl-",CC(CCCC(C)(C)O)CCO,538.15,10,"[1, 6, 8]",3,True,CHO,alcohol
1767,Phenyl-Propynoic Acid Ethyl Ester,CCOC(=O)C#CC1=CC=CC=C1,538.15,11,"[1, 6, 8]",3,True,CHO,ester
1768,"Acetic Acid, Cinnamyl Ester",CC(=O)OC/C=C/C1=CC=CC=C1,538.15,11,"[1, 6, 8]",3,True,CHO,ester
1769,"1-Hexanone, 1-Phenyl-",CCCCCC(=O)C1=CC=CC=C1,538.15,12,"[1, 6, 8]",3,True,CHO,aromatic
1770,"Cyclohexanone, 2-(1-Cyclohexen-1-Yl)-",C1CCC(=CC1)C2CCCCC2=O,538.15,12,"[1, 6, 8]",3,True,CHO,alkene
1771,"2,5-Tetrahydrofurandimethanol",C1CC(OC1CO)CO,538.15,6,"[1, 6, 8]",3,True,CHO,ester
1772,P-Methylphenylacetic Acid,CC1=CC=C(C=C1)CC(=O)O,538.15,9,"[1, 6, 8]",3,True,CHO,aromatic
1773,Phenylacetic Acid,C1=CC=C(C=C1)CC(=O)O,538.65,8,"[1, 6, 8]",3,True,CHO,aromatic
1774,O-Vanillin,COC1=CC=CC(=C1O)C=O,538.65,8,"[1, 6, 8]",3,True,CHO,ester
1775,"1-Naphthalenol, 5,6,7,8-Tetrahydro-",C1CCC2=C(C1)C=CC=C2O,539.15,10,"[1, 6, 8]",3,True,CHO,aromatic
1776,2-Methoxy-4-(1-Propenyl)phenol,C/C=C/C1=CC(=C(C=C1)O)OC,539.15,10,"[1, 6, 8]",3,True,CHO,ester
1777,"Phenol, 2,3,4,5-Tetramethyl-",CC1=CC(=C(C(=C1C)C)C)O,539.15,10,"[1, 6, 8]",3,True,CHO,aromatic
1778,2-Phenoxypropionic Acid,CC(C(=O)O)OC1=CC=CC=C1,539.15,9,"[1, 6, 8]",3,True,CHO,carboxylic_acid
1779,"Phenol, 2-Methoxy-6-(1-Propenyl)-",CC=CC1=C(C(=CC=C1)OC)O,540.65,10,"[1, 6, 8]",3,True,CHO,ester
1780,"2-Propanone, 1-(4-Methoxyphenyl)-",CC(=O)CC1=CC=C(C=C1)OC,541.15,10,"[1, 6, 8]",3,True,CHO,ester
1781,"Octanedioic Acid, Dimethyl Ester",COC(=O)CCCCCCC(=O)OC,541.15,10,"[1, 6, 8]",3,True,CHO,ester
1782,"Benzoic Acid, 2,4-Dimethyl-",CC1=CC(=C(C=C1)C(=O)O)C,541.15,9,"[1, 6, 8]",3,True,CHO,aromatic
1783,"1,3-Benzenediol, 4-Methyl-",CC1=C(C=C(C=C1)O)O,541.65,7,"[1, 6, 8]",3,True,CHO,aromatic
1784,Decanoic Acid,CCCCCCCCCC(=O)O,541.8499999999999,10,"[1, 6, 8]",3,True,CHO,alcohol
1785,"Naphthalene, 1-Methoxy-",COC1=CC=CC2=CC=CC=C21,542.15,11,"[1, 6, 8]",3,True,CHO,ester
1786,"Benzoic Acid, 4-Methoxy-, Ethyl Ester",CCOC(=O)C1=CC=C(C=C1)OC,542.65,10,"[1, 6, 8]",3,True,CHO,ester
1787,"Ethanone, 2-(acetyloxy)-1-Phenyl-",CC(=O)OCC(=O)C1=CC=CC=C1,543.15,10,"[1, 6, 8]",3,True,CHO,ester
1788,"Benzenemethanol, 4-Methoxy-, Acetate",CC(=O)OCC1=CC=C(C=C1)OC,543.15,10,"[1, 6, 8]",3,True,CHO,ester
1789,Eugenyl Formate,COC1=C(C=CC(=C1)CC=C)OC=O,543.15,11,"[1, 6, 8]",3,True,CHO,ester
1790,"Benzoic Acid, 2-Hydroxy-, Pentyl Ester",CCCCCOC(=O)C1=CC=CC=C1O,543.15,12,"[1, 6, 8]",3,True,CHO,ester
1791,Dehydroacetic Acid,CC1=CC(=O)C(C(=O)O1)C(=O)C,543.15,8,"[1, 6, 8]",3,True,CHO,ester
1792,"Benzaldehyde, 2,5-Dimethoxy-",COC1=CC(=C(C=C1)OC)C=O,543.15,9,"[1, 6, 8]",3,True,CHO,ester
1793,"Benzene, 1,2-Dimethoxy-4-(1-Propenyl)-",C/C=C/C1=CC(=C(C=C1)OC)OC,543.65,11,"[1, 6, 8]",3,True,CHO,ester
1794,"Benzeneacetic Acid, .alpha.-Ethyl-",CCC(C1=CC=CC=C1)C(=O)O,544.15,10,"[1, 6, 8]",3,True,CHO,aromatic
1795,"Cinnamic Acid, Ethyl Ester",CCOC(=O)/C=C/C1=CC=CC=C1,544.15,11,"[1, 6, 8]",3,True,CHO,ester
1796,"Benzoic Acid, 2-Hydroxy-, Butyl Ester",CCCCOC(=O)C1=CC=CC=C1O,544.15,11,"[1, 6, 8]",3,True,CHO,ester
1797,4-Isopropylcatechol,CC(C)C1=CC(=C(C=C1)O)O,544.15,9,"[1, 6, 8]",3,True,CHO,aromatic
1798,Tripropylene Glycol,CC(CO)OCC(C)OCC(C)O,544.15,9,"[1, 6, 8]",3,True,CHO,ester
1799,"1,4-Benzenediol, 2-Methyl-",CC1=C(C=CC(=C1)O)O,545.15,7,"[1, 6, 8]",3,True,CHO,aromatic
1800,"2h-1-Benzopyran-2-One, 3,4-Dihydro-",C1CC(=O)OC2=CC=CC=C21,545.15,9,"[1, 6, 8]",3,True,CHO,ester
1801,2-Tert-Butylhydroquinone,CC(C)(C)C1=C(C=CC(=C1)O)O,546.15,10,"[1, 6, 8]",3,True,CHO,aromatic
1802,"1,2-Ethanediol, 1-Phenyl-",C1=CC=C(C=C1)C(CO)O,546.15,8,"[1, 6, 8]",3,True,CHO,aromatic
1803,"Naphthalene, 2-Methoxy-",COC1=CC2=CC=CC=C2C=C1,547.15,11,"[1, 6, 8]",3,True,CHO,ester
1804,"Benzoic Acid, 3,4,5-Trimethoxy-, Methyl Ester",COC1=CC(=CC(=C1OC)OC)C(=O)OC,547.65,11,"[1, 6, 8]",3,True,CHO,ester
1805,"Butanedioic Acid, Dibutyl Ester",CCCCOC(=O)CCC(=O)OCCCC,547.65,12,"[1, 6, 8]",3,True,CHO,ester
1806,"Hexanoic Acid, 5-Oxo-",CC(=O)CCCC(=O)O,547.65,6,"[1, 6, 8]",3,True,CHO,carboxylic_acid
1807,"2,6-Dimethylbenzoic Acid",CC1=C(C(=CC=C1)C)C(=O)O,547.65,9,"[1, 6, 8]",3,True,CHO,aromatic
1808,"Tartaric Acid, Diisopropyl Ester",CC(C)OC(=O)C(C(C(=O)OC(C)C)O)O,548.15,10,"[1, 6, 8]",3,True,CHO,ester
1809,Ethyl 4-Ethoxybenzoate,CCOC1=CC=C(C=C1)C(=O)OCC,548.15,11,"[1, 6, 8]",3,True,CHO,ester
1810,Undecylenic Acid,C=CCCCCCCCCC(=O)O,548.15,11,"[1, 6, 8]",3,True,CHO,alkene
1811,"2,5,8,11,14-Pentaoxapentadecane",COCCOCCOCCOCCOC,548.45,10,"[1, 6, 8]",3,True,CHO,ester
1812,"2-Naphthalenol, 5,6,7,8-Tetrahydro-",C1CCC2=C(C1)C=CC(=C2)O,548.65,10,"[1, 6, 8]",3,True,CHO,aromatic
1813,"2-Benzofurancarboxylic Acid, Ethyl Ester",CCOC(=O)C1=CC2=CC=CC=C2O1,549.15,11,"[1, 6, 8]",3,True,CHO,ester
1814,Pentaerythritol,C(C(CO)(CO)CO)O,549.15,5,"[1, 6, 8]",3,True,CHO,alcohol
1815,"4,6-Dimethylresorcinol",CC1=CC(=C(C=C1O)O)C,549.15,8,"[1, 6, 8]",3,True,CHO,aromatic
1816,Myristicin,COC1=CC(=CC2=C1OCO2)CC=C,549.65,11,"[1, 6, 8]",3,True,CHO,ester
1817,P-Methoxybenzoic Acid,COC1=CC=C(C=C1)C(=O)O,549.65,8,"[1, 6, 8]",3,True,CHO,carboxylic_acid
1818,Cyclohexanepropanoic Acid,C1CCC(CC1)CCC(=O)O,549.65,9,"[1, 6, 8]",3,True,CHO,alcohol
1819,Triethylene Glycol Butyl Ether,CCCCOCCOCCOCCO,551.15,10,"[1, 6, 8]",3,True,CHO,ester
1820,"Benzoic Acid, 2-Hydroxy-, 3-Methylbutyl Ester",CC(C)CCOC(=O)C1=CC=CC=C1O,551.15,12,"[1, 6, 8]",3,True,CHO,ester
1821,"2,5-Dimethyl-1,3-Benzenediol",CC1=CC(=C(C(=C1)O)C)O,551.65,8,"[1, 6, 8]",3,True,CHO,aromatic
1822,"Benzaldehyde, 3,4-Diethoxy-",CCOC1=C(C=C(C=C1)C=O)OCC,552.15,11,"[1, 6, 8]",3,True,CHO,ester
1823,Beta-Phenylpropionic Acid,C1=CC=C(C=C1)CCC(=O)O,552.95,9,"[1, 6, 8]",3,True,CHO,aromatic
1824,Divinyl Ether,C=COC=C,301.45,4,"[1, 6, 8]",3,True,CHO,ester
1825,Undecanoic Acid,CCCCCCCCCCC(=O)O,553.15,11,"[1, 6, 8]",3,True,CHO,alcohol
1826,Resorcinol,C1=CC(=CC(=C1)O)O,553.15,6,"[1, 6, 8]",3,True,CHO,aromatic
1827,1-Monobutyrin,CCCC(=O)OCC(CO)O,553.15,7,"[1, 6, 8]",3,True,CHO,ester
1828,"Tartaric Acid, Diethyl Ester",CCOC(=O)C(C(C(=O)OCC)O)O,553.15,8,"[1, 6, 8]",3,True,CHO,ester
1829,Eugenyl Acetate,CC(=O)OC1=C(C=C(C=C1)CC=C)OC,554.15,12,"[1, 6, 8]",3,True,CHO,ester
1830,Dibutyl Maleate,CCCCOC(=O)/C=C\C(=O)OCCCC,554.15,12,"[1, 6, 8]",3,True,CHO,ester
1831,Methyl M-Hydroxybenzoate,COC(=O)C1=CC(=CC=C1)O,554.15,8,"[1, 6, 8]",3,True,CHO,ester
1832,"Benzaldehyde, 3,4-Dimethoxy-",COC1=C(C=C(C=C1)C=O)OC,554.15,9,"[1, 6, 8]",3,True,CHO,ester
1833,Dimethyl Isophthalate,COC(=O)C1=CC(=CC=C1)C(=O)OC,555.15,10,"[1, 6, 8]",3,True,CHO,ester
1834,"Naphthalene, 2-Ethoxy-",CCOC1=CC2=CC=CC=C2C=C1,555.15,12,"[1, 6, 8]",3,True,CHO,ester
1835,Diethyl Suberate,CCOC(=O)CCCCCCC(=O)OCC,555.75,12,"[1, 6, 8]",3,True,CHO,ester
1836,"Benzoic Acid, 3,4-Dimethoxy-, Methyl Ester",COC1=C(C=C(C=C1)C(=O)OC)OC,556.15,10,"[1, 6, 8]",3,True,CHO,ester
1837,"1,3-Propanediol, 2-(hydroxymethyl)-2-Methyl-",CC(CO)(CO)CO,556.15,5,"[1, 6, 8]",3,True,CHO,alcohol
1838,M-Hydroxyphenyl Acetate,CC(=O)OC1=CC=CC(=C1)O,556.15,8,"[1, 6, 8]",3,True,CHO,ester
1839,Dimethyl Phthalate,COC(=O)C1=CC=CC=C1C(=O)OC,556.8499999999999,10,"[1, 6, 8]",3,True,CHO,ester
1840,"1,4-Cyclohexanedimethanol",C1CC(CCC1CO)CO,557.65,8,"[1, 6, 8]",3,True,CHO,alcohol
1841,"1,2-Benzenediol, 4-(1,1-Dimethylethyl)-",CC(C)(C)C1=CC(=C(C=C1)O)O,558.15,10,"[1, 6, 8]",3,True,CHO,aromatic
1842,2-Naphthol,C1=CC=C2C=C(C=CC2=C1)O,558.15,10,"[1, 6, 8]",3,True,CHO,aromatic
1843,Apiole (dill),COC1=C(C2=C(C=C1CC=C)OCO2)OC,558.15,12,"[1, 6, 8]",3,True,CHO,ester
1844,Triethylene Glycol,C(COCCOCCO)O,558.15,6,"[1, 6, 8]",3,True,CHO,ester
1845,"Hexanedioic Acid, Monoethyl Ester",CCOC(=O)CCCCC(=O)O,558.15,8,"[1, 6, 8]",3,True,CHO,carboxylic_acid
1846,Phenoxyacetic Acid,C1=CC=C(C=C1)OCC(=O)O,558.15,8,"[1, 6, 8]",3,True,CHO,carboxylic_acid
1847,Vanillin,COC1=C(C=CC(=C1)C=O)O,558.15,8,"[1, 6, 8]",3,True,CHO,ester
1848,Phthalic Anhydride,C1=CC=C2C(=C1)C(=O)OC2=O,558.45,8,"[1, 6, 8]",3,True,CHO,aromatic
1849,"1,3-Benzodioxole-5-Carboxylic Acid, Ethyl Ester",CCOC(=O)C1=CC2=C(C=C1)OCO2,558.65,10,"[1, 6, 8]",3,True,CHO,ester
1850,"2(3h)-Furanone, 5-Heptyldihydro-",CCCCCCCC1CCC(=O)O1,559.15,11,"[1, 6, 8]",3,True,CHO,ester
1851,2-Phenylphenol,C1=CC=C(C=C1)C2=CC=CC=C2O,559.15,12,"[1, 6, 8]",3,True,CHO,aromatic
1852,Hydroquinone,C1=CC(=CC=C1O)O,559.15,6,"[1, 6, 8]",3,True,CHO,aromatic
1853,"Benzoic Acid, 4-Hydroxy-3-Methoxy-, Methyl Ester",COC1=C(C=CC(=C1)C(=O)OC)O,559.15,9,"[1, 6, 8]",3,True,CHO,ester
1854,1h-2-Benzopyran-1-One,C1=CC=C2C(=C1)C=COC2=O,559.15,9,"[1, 6, 8]",3,True,CHO,aromatic
1855,"Ethanone, 1-(3,4-Dimethoxyphenyl)-",CC(=O)C1=CC(=C(C=C1)OC)OC,560.15,10,"[1, 6, 8]",3,True,CHO,ester
1856,Dibenzofuran,C1=CC=C2C(=C1)C3=CC=CC=C3O2,560.15,12,"[1, 6, 8]",3,True,CHO,aromatic
1857,Glutaric Anhydride,C1CC(=O)OC(=O)C1,560.15,5,"[1, 6, 8]",3,True,CHO,ether
1858,Dimethylterephthalate,COC(=O)C1=CC=C(C=C1)C(=O)OC,561.15,10,"[1, 6, 8]",3,True,CHO,ester
1859,1-Naphthol,C1=CC=C2C(=C1)C=CC=C2O,561.15,10,"[1, 6, 8]",3,True,CHO,aromatic
1860,"1,1,1-Tris(hydroxymethyl)propane",CCC(CO)(CO)CO,562.15,6,"[1, 6, 8]",3,True,CHO,alcohol
1861,5-Methylresorcinol,CC1=CC(=CC(=C1)O)O,562.65,7,"[1, 6, 8]",3,True,CHO,aromatic
1862,4-Phenylbutyric Acid,C1=CC=C(C=C1)CCCC(=O)O,563.15,10,"[1, 6, 8]",3,True,CHO,aromatic
1863,"2-Naphthalenecarboxylic Acid, Methyl Ester",COC(=O)C1=CC2=CC=CC=C2C=C1,563.15,12,"[1, 6, 8]",3,True,CHO,ester
1864,Glycerol,C(C(CO)O)O,563.15,3,"[1, 6, 8]",3,True,CHO,alcohol
1865,Fumaric Acid,C(=C/C(=O)O)\C(=O)O,563.15,4,"[1, 6, 8]",3,True,CHO,alkene
1866,Phthalide,C1C2=CC=CC=C2C(=O)O1,563.15,8,"[1, 6, 8]",3,True,CHO,ester
1867,"Benzoic Acid, 4-Hydroxy-3-Methoxy-, Ethyl Ester",CCOC(=O)C1=CC(=C(C=C1)O)OC,565.15,10,"[1, 6, 8]",3,True,CHO,ester
1868,1-Naphthalenecarboxaldehyde,C1=CC=C2C(=C1)C=CC=C2C=O,565.15,11,"[1, 6, 8]",3,True,CHO,aromatic
1869,"2h-1-Benzopyran-2-One, 3-Methyl-",CC1=CC2=CC=CC=C2OC1=O,565.65,10,"[1, 6, 8]",3,True,CHO,aromatic
1870,"1,3-Benzodioxole, 4,7-Dimethoxy-5-(2-Propenyl)-",COC1=C2C(=C(C(=C1)CC=C)OC)OCO2,567.15,12,"[1, 6, 8]",3,True,CHO,ester
1871,P-Cyclohexylphenol,C1CCC(CC1)C2=CC=C(C=C2)O,567.15,12,"[1, 6, 8]",3,True,CHO,aromatic
1872,Triethyl Citrate,CCOC(=O)CC(CC(=O)OCC)(C(=O)OCC)O,567.15,12,"[1, 6, 8]",3,True,CHO,ester
1873,"Benzaldehyde, 3-Ethoxy-4-Hydroxy-",CCOC1=C(C=CC(=C1)C=O)O,567.15,9,"[1, 6, 8]",3,True,CHO,ester
1874,Decanedioic Acid,C(CCCCC(=O)O)CCCC(=O)O,567.65,10,"[1, 6, 8]",3,True,CHO,alcohol
1875,Diethyl Phthalate,CCOC(=O)C1=CC=CC=C1C(=O)OCC,568.15,12,"[1, 6, 8]",3,True,CHO,ester
1876,"2,3,4-Trimethoxyacetophenone",CC(=O)C1=C(C(=C(C=C1)OC)OC)OC,569.15,11,"[1, 6, 8]",3,True,CHO,ester
1877,Trans-Asarone,C/C=C/C1=CC(=C(C=C1OC)OC)OC,569.15,12,"[1, 6, 8]",3,True,CHO,ester
1878,M-Hydroxyacetophenone,CC(=O)C1=CC(=CC=C1)O,569.15,8,"[1, 6, 8]",3,True,CHO,ketone
1879,Alpha-Naphthyl Methyl Ketone,CC(=O)C1=CC=CC2=CC=CC=C21,570.15,12,"[1, 6, 8]",3,True,CHO,aromatic
1880,"Ethanone, 1-(4-Hydroxy-3-Methoxyphenyl)-",CC(=O)C1=CC(=C(C=C1)O)OC,570.15,9,"[1, 6, 8]",3,True,CHO,ester
1881,"Benzenemethanol, 3,4-Dimethoxy-",COC1=C(C=C(C=C1)CO)OC,571.15,9,"[1, 6, 8]",3,True,CHO,ester
1882,Dodecanoic Acid,CCCCCCCCCCCC(=O)O,572.05,12,"[1, 6, 8]",3,True,CHO,alcohol
1883,Methyl Isopropyl Ether,CC(C)OC,303.84999999999997,4,"[1, 6, 8]",3,True,CHO,ester
1884,"Benzoic Acid, 2,4,5-Trimethoxy-",COC1=CC(=C(C=C1C(=O)O)OC)OC,573.15,10,"[1, 6, 8]",3,True,CHO,carboxylic_acid
1885,1-Napthoic Acid,C1=CC=C2C(=C1)C=CC=C2C(=O)O,573.15,11,"[1, 6, 8]",3,True,CHO,aromatic
1886,"1,2,4-Benzenetriol, Triacetate",CC(=O)OC1=CC(=C(C=C1)OC(=O)C)OC(=O)C,573.15,12,"[1, 6, 8]",3,True,CHO,ester
1887,"Pentanedioic Acid, 3-Oxo-",C(C(=O)CC(=O)O)C(=O)O,573.15,5,"[1, 6, 8]",3,True,CHO,carboxylic_acid
1888,"2-Propenoic Acid, 3-Phenyl-, (e)-",C1=CC=C(C=C1)/C=C/C(=O)O,573.15,9,"[1, 6, 8]",3,True,CHO,alkene