,Name,SMILES,Tb,C Atom,Atom,Count Unique Atom,Pass Screen,Atom2,Func. Group
772,Acetic Anhydride,CC(=O)OC(=O)C,412.65,4,"[1, 6, 8]",3,True,CHO,ether
773,"Cyclopentanone, 2-Methyl-",CC1CCCC1=O,412.65,6,"[1, 6, 8]",3,True,CHO,ketone
774,"2,3-Dimethyl-3-Pentanol",CCC(C)(C(C)C)O,412.84999999999997,7,"[1, 6, 8]",3,True,CHO,alcohol
775,"Peroxide, Dimethyl",COOC,287.15,2,"[1, 6, 8]",3,True,CHO,ester
776,4-Phenylbutanol,C1=CC=C(C=C1)CCCCO,413.15,10,"[1, 6, 8]",3,True,CHO,aromatic
777,4-Tert-Butylbenzyl Alcohol,CC(C)(C)C1=CC=C(C=C1)CO,413.15,11,"[1, 6, 8]",3,True,CHO,aromatic
778,"2-Buten-1-Ol, 3-Methyl-",CC(=CCO)C,413.15,5,"[1, 6, 8]",3,True,CHO,alkene
779,3-Hexen-2-One,CC/C=C/C(=O)C,413.15,6,"[1, 6, 8]",3,True,CHO,alkene
780,Methyl Tetrahydrofurfuryl Ether,COCC1CCCO1,413.15,6,"[1, 6, 8]",3,True,CHO,ester
781,"1-Butanol, 2-Methyl-, Acetate",CCC(C)COC(=O)C,413.15,7,"[1, 6, 8]",3,True,CHO,ester
782,"2-Cyclopenten-1-One, 3-Methyl-2-Pentyl-",CCCCCC1=C(CCC1=O)C,416.65,11,"[1, 6, 8]",3,True,CHO,alkene
783,Cyclopentanol,C1CCC(C1)O,413.54999999999995,5,"[1, 6, 8]",3,True,CHO,alcohol
784,3-Hydroxy-3-Methyl-2-Butanone,CC(=O)C(C)(C)O,413.65,5,"[1, 6, 8]",3,True,CHO,alcohol
785,2-Ethoxy-1-Propanol,CCOC(C)CO,413.65,5,"[1, 6, 8]",3,True,CHO,ester
786,Di-n-Butyl Ether,CCCCOCCCC,413.95,8,"[1, 6, 8]",3,True,CHO,ester
787,Acrylic Acid,C=CC(=O)O,414.15,3,"[1, 6, 8]",3,True,CHO,alkene
788,4-Penten-1-Ol,C=CCCCO,414.15,5,"[1, 6, 8]",3,True,CHO,alkene
789,N-Propyl Methacrylate,CCCOC(=O)C(=C)C,414.15,7,"[1, 6, 8]",3,True,CHO,ester
790,2-Methyl-3-Hexanol,CCCC(C(C)C)O,414.15,7,"[1, 6, 8]",3,True,CHO,alcohol
791,Propionic Acid,CCC(=O)O,414.25,3,"[1, 6, 8]",3,True,CHO,alcohol
792,"Ethanol, 2-(ethenyloxy)-",C=COCCO,414.75,4,"[1, 6, 8]",3,True,CHO,ester
793,"Acetic Acid, Methoxy-, Ethyl Ester",CCOC(=O)COC,415.15,5,"[1, 6, 8]",3,True,CHO,ester
794,Tetrahydro-Furan-2-Carbaldehyde,C1CC(OC1)C=O,415.15,5,"[1, 6, 8]",3,True,CHO,ester
795,1-Hexyn-3-Ol,CCCC(C#C)O,415.15,6,"[1, 6, 8]",3,True,CHO,alkyne
796,"1,2-Propanediol, 3-(2-Propenyloxy)-",C=CCOCC(CO)O,415.15,6,"[1, 6, 8]",3,True,CHO,ester
797,"3-Acetyl-4,5-Dihydro-2(3h)-Furanone",CC(=O)C1CCOC1=O,415.15,6,"[1, 6, 8]",3,True,CHO,ester
798,Dilactide,CC1C(=O)OC(C(=O)O1)C,415.15,6,"[1, 6, 8]",3,True,CHO,ester
799,Diallyl Carbonate,C=CCOC(=O)OCC=C,415.15,7,"[1, 6, 8]",3,True,CHO,ester
800,"Butanoic Acid, 2-Propenyl Ester",CCCC(=O)OCC=C,415.15,7,"[1, 6, 8]",3,True,CHO,ester
801,3-Ethyl-3-Pentanol,CCC(CC)(CC)O,415.15,7,"[1, 6, 8]",3,True,CHO,alcohol
802,"Butanoic Acid, 3-Methyl-, 1-Methylethyl Ester",CC(C)CC(=O)OC(C)C,415.15,8,"[1, 6, 8]",3,True,CHO,ester
803,Isoamyl Acetate,CC(C)CCOC(=O)C,415.65,7,"[1, 6, 8]",3,True,CHO,ester
804,"Propanoic Acid, 3-Methoxy-, Methyl Ester",COCCC(=O)OC,415.95,5,"[1, 6, 8]",3,True,CHO,ester
805,Acetoin,CC(C(=O)C)O,416.15,4,"[1, 6, 8]",3,True,CHO,alcohol
806,"3,3-Dimethyl-1-Butanol",CC(C)(C)CCO,416.15,6,"[1, 6, 8]",3,True,CHO,alcohol
807,"Hexanal, 3-Methyl-",CCCC(C)CC=O,416.15,7,"[1, 6, 8]",3,True,CHO,aldehyde
808,3-Methyl-3-Hexanol,CCCC(C)(CC)O,416.15,7,"[1, 6, 8]",3,True,CHO,alcohol
809,2-Methyl-2-Hexanol,CCCCC(C)(C)O,416.15,7,"[1, 6, 8]",3,True,CHO,alcohol
810,Ethyl Orthoformate,CCOC(OCC)OCC,416.15,7,"[1, 6, 8]",3,True,CHO,ester
811,"Hexane, 1-(ethenyloxy)-",CCCCCCOC=C,416.15,8,"[1, 6, 8]",3,True,CHO,ester
812,"Hexane, 1-Ethoxy-",CCCCCCOCC,416.15,8,"[1, 6, 8]",3,True,CHO,ester
813,5-Methyl-2-Hexanone,CC(C)CCC(=O)C,417.15,7,"[1, 6, 8]",3,True,CHO,ketone
814,2-Propynoic Acid,C#CC(=O)O,417.15,3,"[1, 6, 8]",3,True,CHO,alkyne
815,"2-Hexanone, 4-Methyl-",CCC(C)CC(=O)C,417.65,7,"[1, 6, 8]",3,True,CHO,ketone
816,"3,4-Hexanedione, 2,5-Dimethyl-",CC(C)C(=O)C(=O)C(C)C,417.65,8,"[1, 6, 8]",3,True,CHO,ketone
817,2-Methoxyethyl Acetate,CC(=O)OCCOC,418.15,5,"[1, 6, 8]",3,True,CHO,ester
818,2-Isopropoxyethanol,CC(C)OCCO,418.15,5,"[1, 6, 8]",3,True,CHO,ester
819,Furan-3-Carboxaldehyde,C1=COC=C1C=O,418.15,5,"[1, 6, 8]",3,True,CHO,aromatic
820,Butyl Acrylate,CCCCOC(=O)C=C,418.15,7,"[1, 6, 8]",3,True,CHO,ester
821,"Ethane, 1,1,1-Triethoxy-",CCOC(C)(OCC)OCC,418.15,8,"[1, 6, 8]",3,True,CHO,ester
822,Hydroxyacetone,CC(=O)CO,418.65,3,"[1, 6, 8]",3,True,CHO,alcohol
823,"Furan, Tetrahydro-2,5-Dimethoxy-",COC1CCC(O1)OC,418.84999999999997,6,"[1, 6, 8]",3,True,CHO,ester
824,"1,3-Benzenediol, Diacetate",CC(=O)OC1=CC(=CC=C1)OC(=O)C,419.15,10,"[1, 6, 8]",3,True,CHO,ester
825,"2h-Pyran-2-Carboxaldehyde, 3,4-Dihydro-",C1CC(OC=C1)C=O,419.15,6,"[1, 6, 8]",3,True,CHO,ester
826,Ethyl Valerate,CCCCC(=O)OCC,419.25,7,"[1, 6, 8]",3,True,CHO,ester
827,(e)-2-Hexenal,CCC/C=C/C=O,419.65,6,"[1, 6, 8]",3,True,CHO,alkene
828,"Cyclopentanone, 2,5-Dimethyl-",CC1CCC(C1=O)C,419.65,7,"[1, 6, 8]",3,True,CHO,ketone
829,"1-Hexen-3-Ol, 3,5-Dimethyl-",CC(C)CC(C)(C=C)O,419.65,8,"[1, 6, 8]",3,True,CHO,alkene
830,N-Butyl Propionate,CCCCOC(=O)CC,419.95,7,"[1, 6, 8]",3,True,CHO,ester
831,2-Ethyl-1-Butanol,CCC(CC)CO,420.15,6,"[1, 6, 8]",3,True,CHO,alcohol
832,3-Heptanone,CCCCC(=O)CC,420.15,7,"[1, 6, 8]",3,True,CHO,ketone
833,"3-Hexanone, 2,2-Dimethyl-",CCCC(=O)C(C)(C)C,420.15,8,"[1, 6, 8]",3,True,CHO,ketone
834,P-Hydroxyacetophenone,CC(=O)C1=CC=C(C=C1)O,420.65,8,"[1, 6, 8]",3,True,CHO,ketone
835,"3-Hexanone, 2,5-Dimethyl-",CC(C)CC(=O)C(C)C,420.65,8,"[1, 6, 8]",3,True,CHO,ketone
836,4-Methyl-2-Pentyl Acetate,CC(C)CC(C)OC(=O)C,420.65,8,"[1, 6, 8]",3,True,CHO,ester
837,"1,1-Diethoxy-But-2-Ene",CCOC(C=CC)OCC,420.65,8,"[1, 6, 8]",3,True,CHO,ester
838,2-Butyn-1-Ol,CC#CCO,421.15,4,"[1, 6, 8]",3,True,CHO,alkyne
839,"Propane, 1,2,3-Trimethoxy-",COCC(COC)OC,421.15,6,"[1, 6, 8]",3,True,CHO,ester
840,3-Methyl-Cyclopentanol,CC1CCC(C1)O,421.65,6,"[1, 6, 8]",3,True,CHO,alcohol
841,Isobutyl Isobutyrate,CC(C)COC(=O)C(C)C,421.75,8,"[1, 6, 8]",3,True,CHO,ester
842,2-Cyclopentylphenol,C1CCC(C1)C2=CC=CC=C2O,422.15,11,"[1, 6, 8]",3,True,CHO,aromatic
843,2-Methyl-1-Pentanol,CCCC(C)CO,422.15,6,"[1, 6, 8]",3,True,CHO,alcohol
844,"2-Hexanone, 3,3-Dimethyl-",CCCC(C)(C)C(=O)C,422.15,8,"[1, 6, 8]",3,True,CHO,ketone
845,N-Amyl Acetate,CCCCCOC(=O)C,422.34999999999997,7,"[1, 6, 8]",3,True,CHO,ester
846,Methyl Hexanoate,CCCCCC(=O)OC,422.65,7,"[1, 6, 8]",3,True,CHO,ester
847,Ethylene Glycol Monopropyl Ether,CCCOCCO,422.95,5,"[1, 6, 8]",3,True,CHO,ester
848,"Mandelic Acid, Ethyl Ester",CCOC(=O)C(C1=CC=CC=C1)O,423.15,10,"[1, 6, 8]",3,True,CHO,ester
849,"2-Butenedioic Acid (2e)-, Dibutyl Ester",CCCCOC(=O)/C=C/C(=O)OCCCC,423.15,12,"[1, 6, 8]",3,True,CHO,ester
850,"Propanoic Acid, 2-Hydroxy-2-Methyl-, Ethyl Ester",CCOC(=O)C(C)(C)O,423.15,6,"[1, 6, 8]",3,True,CHO,ester
851,1-Propoxy-2-Propanol,CCCOCC(C)O,423.15,6,"[1, 6, 8]",3,True,CHO,ester
852,"5-Hexen-2-One, 5-Methyl-",CC(=C)CCC(=O)C,423.15,7,"[1, 6, 8]",3,True,CHO,alkene
853,O-Hydroxypropiophenone,CCC(=O)C1=CC=CC=C1O,423.15,9,"[1, 6, 8]",3,True,CHO,ketone
854,"1,2-Ethanediol, Monobenzoate",C1=CC=C(C=C1)C(=O)OCCO,423.15,9,"[1, 6, 8]",3,True,CHO,ester
855,"2,2,4-Trimethyl-3-Pentanol",CC(C)C(C(C)(C)C)O,423.65,8,"[1, 6, 8]",3,True,CHO,alcohol
856,"Hepta-1,6-Dien-4-Ol",C=CCC(CC=C)O,424.15,7,"[1, 6, 8]",3,True,CHO,alkene
857,3-Heptenal,CCC/C=C/CC=O,424.15,7,"[1, 6, 8]",3,True,CHO,alkene
858,5-Methyl-2-Hexanol,CC(C)CCC(C)O,424.15,7,"[1, 6, 8]",3,True,CHO,alcohol
859,Propylene Glycol Mono-t-Butyl Ether,CC(COC(C)(C)C)O,424.15,7,"[1, 6, 8]",3,True,CHO,ester
860,"Butane, 1-(2-Methylpropoxy)-",CCCCOCC(C)C,424.15,8,"[1, 6, 8]",3,True,CHO,ester
861,2-Heptanone,CCCCCC(=O)C,424.15,7,"[1, 6, 8]",3,True,CHO,ketone
862,4-Methyl-1-Pentanol,CC(C)CCCO,425.04999999999995,6,"[1, 6, 8]",3,True,CHO,alcohol
863,M-Acetylacetophenone,CC(=O)C1=CC(=CC=C1)C(=O)C,425.15,10,"[1, 6, 8]",3,True,CHO,aromatic
864,"3,5-Dimethyl-3-Hexanol",CCC(C)(CC(C)C)O,425.15,8,"[1, 6, 8]",3,True,CHO,alcohol
865,"3-Pentanone, 2,2,4,4-Tetramethyl-",CC(C)(C)C(=O)C(C)(C)C,425.15,9,"[1, 6, 8]",3,True,CHO,ketone
866,"2-Butanone, 4-(4-Methoxyphenyl)-",CC(=O)CCC1=CC=C(C=C1)OC,425.65,11,"[1, 6, 8]",3,True,CHO,ester
867,1-Hepten-4-Ol,CCCC(CC=C)O,425.25,7,"[1, 6, 8]",3,True,CHO,alkene
868,Heptanal,CCCCCCC=O,425.95,7,"[1, 6, 8]",3,True,CHO,aldehyde
869,"2-Butenoic Acid, 3-Methyl-, Ethyl Ester",CCOC(=O)C=C(C)C,426.65,7,"[1, 6, 8]",3,True,CHO,ester
870,Anisole,COC1=CC=CC=C1,426.84999999999997,7,"[1, 6, 8]",3,True,CHO,ester
871,Ethyl Lactate,CCOC(=O)C(C)O,427.15,5,"[1, 6, 8]",3,True,CHO,ester
872,3-Pentyn-1-Ol,CC#CCCO,427.15,5,"[1, 6, 8]",3,True,CHO,alkyne
873,Pent-4-Yn-1-Ol,C#CCCCO,427.15,5,"[1, 6, 8]",3,True,CHO,alkyne
874,"4-Hexen-2-One, 3,4-Dimethyl-",CC=C(C)C(C)C(=O)C,427.15,8,"[1, 6, 8]",3,True,CHO,alkene
875,"4-Heptanone, 3-Methyl-",CCCC(=O)C(C)CC,427.15,8,"[1, 6, 8]",3,True,CHO,ketone
876,Isobutyric Acid,CC(C)C(=O)O,427.54999999999995,4,"[1, 6, 8]",3,True,CHO,alcohol
877,"2-Hexanol, 2,5-Dimethyl-, (s)-",CC(C)CCC(C)(C)O,427.65,8,"[1, 6, 8]",3,True,CHO,alcohol
878,4-Cyclopentylphenol,C1CCC(C1)C2=CC=C(C=C2)O,428.15,11,"[1, 6, 8]",3,True,CHO,aromatic
879,"Propanoic Acid, 2-Oxo-, Ethyl Ester",CCOC(=O)C(=O)C,428.15,5,"[1, 6, 8]",3,True,CHO,ester
880,1-Methylcyclohexanol,CC1(CCCCC1)O,428.15,7,"[1, 6, 8]",3,True,CHO,alcohol
881,"4-Heptanone, 2-Methyl-",CCCC(=O)CC(C)C,428.15,8,"[1, 6, 8]",3,True,CHO,ketone
882,"Isobutyric Acid, Butyl Ester (6ci,7ci,8ci)",CCCCOC(=O)C(C)C,428.15,8,"[1, 6, 8]",3,True,CHO,ester
883,Cyclohexanone,C1CCC(=O)CC1,428.54999999999995,6,"[1, 6, 8]",3,True,CHO,ketone
884,"Formic Acid, Hexyl Ester",CCCCCCOC=O,428.65,7,"[1, 6, 8]",3,True,CHO,ester
885,"Benzene, (ethenyloxy)-",C=COC1=CC=CC=C1,428.65,8,"[1, 6, 8]",3,True,CHO,ester
886,Propyl Isovalerate,CCCOC(=O)CC(C)C,429.04999999999995,8,"[1, 6, 8]",3,True,CHO,ester
887,"2-Butenoic Acid, 2-Methyl-, Ethyl Ester, (e)-",CCOC(=O)/C(=C/C)/C,429.15,7,"[1, 6, 8]",3,True,CHO,ester
888,4-Heptanol,CCCC(CCC)O,429.15,7,"[1, 6, 8]",3,True,CHO,alcohol
889,2-Methyl-2-Heptanol,CCCCCC(C)(C)O,429.15,8,"[1, 6, 8]",3,True,CHO,alcohol
890,"3-Hexanol, 2,2-Dimethyl-",CCCC(C(C)(C)C)O,429.15,8,"[1, 6, 8]",3,True,CHO,alcohol
891,"3-Pentanol, 2,3,4-Trimethyl-",CC(C)C(C)(C(C)C)O,429.65,8,"[1, 6, 8]",3,True,CHO,alcohol
892,"Butanoic Acid, 2-Methylpropyl Ester",CCCC(=O)OCC(C)C,430.04999999999995,8,"[1, 6, 8]",3,True,CHO,ester
893,3-Methoxy-1-Butanol,CC(CCO)OC,430.15,5,"[1, 6, 8]",3,True,CHO,ester
894,"2-Hexen-1-Ol, (z)-",CCC/C=C\CO,430.15,6,"[1, 6, 8]",3,True,CHO,alkene
895,"2-Hexen-1-Ol, (e)-",CCC/C=C/CO,430.15,6,"[1, 6, 8]",3,True,CHO,alkene
896,"2-Cyclopenten-1-One, 2-Methyl-",CC1=CCCC1=O,430.15,6,"[1, 6, 8]",3,True,CHO,alkene
897,"1,3-Benzodioxole-5-Methanol",C1OC2=C(O1)C=C(C=C2)CO,430.15,8,"[1, 6, 8]",3,True,CHO,ester
898,"2-Cyclopenten-1-One, 3-Methyl-",CC1=CC(=O)CC1,430.65,6,"[1, 6, 8]",3,True,CHO,alkene
899,"Cyclopentanol, 1-Ethynyl-",C#CC1(CCCC1)O,430.65,7,"[1, 6, 8]",3,True,CHO,alkyne
900,"3-Hexanol, 2,5-Dimethyl-",CC(C)CC(C(C)C)O,430.65,8,"[1, 6, 8]",3,True,CHO,alcohol
901,1-Hexanol,CCCCCCO,430.75,6,"[1, 6, 8]",3,True,CHO,alcohol
902,Maleic Acid,C(=C\C(=O)O)\C(=O)O,430.95,4,"[1, 6, 8]",3,True,CHO,alkene
903,"Acetic Acid, Ethoxy-, Ethyl Ester",CCOCC(=O)OCC,431.15,6,"[1, 6, 8]",3,True,CHO,ester
904,"Cyclopentanone, 2,2,4-Trimethyl-",CC1CC(=O)C(C1)(C)C,431.15,8,"[1, 6, 8]",3,True,CHO,ketone
905,"3-Heptanone, 2-Methyl-",CCCCC(=O)C(C)C,431.15,8,"[1, 6, 8]",3,True,CHO,ketone
906,"2-Hexanone, 3,4-Dimethyl-",CCC(C)C(C)C(=O)C,431.15,8,"[1, 6, 8]",3,True,CHO,ketone
907,2-Heptanol,CCCCCC(C)O,432.15,7,"[1, 6, 8]",3,True,CHO,alcohol
908,"4-Methyl-Hepta-1,6-Dien-4-Ol",CC(CC=C)(CC=C)O,431.54999999999995,8,"[1, 6, 8]",3,True,CHO,alkene
909,"Ethanol, 2-(2-Propenyloxy)-",C=CCOCCO,431.65,5,"[1, 6, 8]",3,True,CHO,ester
910,"Ethanone, 1-Cyclopentyl-",CC(=O)C1CCCC1,431.65,7,"[1, 6, 8]",3,True,CHO,ketone
911,"4-Hexen-1-Ol, (e)-",C/C=C/CCCO,432.15,6,"[1, 6, 8]",3,True,CHO,alkene
912,"2-Penten-1-Ol, 4-Methyl-",CC(C)/C=C/CO,432.15,6,"[1, 6, 8]",3,True,CHO,alkene
913,Cyclobutanecarboxylic Acid Ethyl Ester,CCOC(=O)C1CCC1,432.15,7,"[1, 6, 8]",3,True,CHO,ester
914,Cyclohexanecarboxaldehyde,C1CCC(CC1)C=O,432.45,7,"[1, 6, 8]",3,True,CHO,aldehyde
915,"2-Butanone, 1-Hydroxy-",CCC(=O)CO,433.15,4,"[1, 6, 8]",3,True,CHO,alcohol
916,"Acetic Acid, Hydroxy-, Ethyl Ester",CCOC(=O)CO,433.15,4,"[1, 6, 8]",3,True,CHO,ester
917,"2,4-Hexanedione",CCC(=O)CC(=O)C,433.15,6,"[1, 6, 8]",3,True,CHO,ketone
918,"Ethanol, 2-(2-Methylpropoxy)-",CC(C)COCCO,433.15,6,"[1, 6, 8]",3,True,CHO,ester
919,"3-Furancarboxylic Acid, Methyl Ester",COC(=O)C1=COC=C1,433.15,6,"[1, 6, 8]",3,True,CHO,ester
920,4-Methoxy-4-Methyl-2-Pentanone,CC(=O)CC(C)(C)OC,433.15,7,"[1, 6, 8]",3,True,CHO,ester
921,2-Propyl-Pentanal,CCCC(CCC)C=O,433.15,8,"[1, 6, 8]",3,True,CHO,aldehyde
922,3-Ethyl-3-Hexanol,CCCC(CC)(CC)O,433.15,8,"[1, 6, 8]",3,True,CHO,alcohol
923,"3-Pentanol, 3-Ethyl-2-Methyl-",CCC(CC)(C(C)C)O,433.15,8,"[1, 6, 8]",3,True,CHO,alcohol
924,"2-Hexanol, 2,3-Dimethyl-",CCCC(C)C(C)(C)O,433.15,8,"[1, 6, 8]",3,True,CHO,alcohol
925,O-Isopropylbenzoic Acid,CC(C)C1=CC=CC=C1C(=O)O,433.65,10,"[1, 6, 8]",3,True,CHO,aromatic
926,"1-Butanol, 3-Methyl-, Propanoate",CCC(=O)OCCC(C)C,433.34999999999997,8,"[1, 6, 8]",3,True,CHO,ester
927,"Cyclopentanone, 2,4,4-Trimethyl-",CC1CC(CC1=O)(C)C,433.65,8,"[1, 6, 8]",3,True,CHO,ketone
928,Cyclohexanol,C1CCC(CC1)O,433.95,6,"[1, 6, 8]",3,True,CHO,alcohol
929,Diallyl Diglycol Carbonate,C=CCOC(=O)OCCOCCOC(=O)OCC=C,434.15,12,"[1, 6, 8]",3,True,CHO,ester
930,"Furan, 2,5-Dihydro-2,5-Dimethoxy-",COC1C=CC(O1)OC,434.15,6,"[1, 6, 8]",3,True,CHO,ester
931,"Methanone, Dicyclopropyl-",C1CC1C(=O)C2CC2,434.15,7,"[1, 6, 8]",3,True,CHO,ketone
932,"4-Heptanol, 4-Methyl-",CCCC(C)(CCC)O,434.15,8,"[1, 6, 8]",3,True,CHO,alcohol
933,Fufural,C1=COC(=C1)C=O,434.84999999999997,5,"[1, 6, 8]",3,True,CHO,aromatic
934,Beta-Propiolactone,C1COC1=O,435.15,3,"[1, 6, 8]",3,True,CHO,ester
935,4-Oxo-Butyric Acid Ethyl Ester,CCOC(=O)CCC=O,435.15,6,"[1, 6, 8]",3,True,CHO,ester
936,2-Methoxyethylether,COCCOCCOC,435.15,6,"[1, 6, 8]",3,True,CHO,ester
937,2-Methylcyclohexanone,CC1CCCCC1=O,435.65,7,"[1, 6, 8]",3,True,CHO,ketone
938,"2-Furanmethanol, .alpha.-Methyl-",CC(C1=CC=CO1)O,435.65,6,"[1, 6, 8]",3,True,CHO,aromatic
939,Methacrylic Acid,CC(=C)C(=O)O,436.15,4,"[1, 6, 8]",3,True,CHO,alkene
940,3-Hexyn-1-Ol,CCC#CCCO,436.15,6,"[1, 6, 8]",3,True,CHO,alkyne
941,Cyclopentanemethanol,C1CCC(C1)CO,436.15,6,"[1, 6, 8]",3,True,CHO,alcohol
942,But-2-Ynoic Acid Ethyl Ester,CCOC(=O)C#CC,436.15,6,"[1, 6, 8]",3,True,CHO,ester
943,"Formic Acid, Cyclohexyl Ester",C1CCC(CC1)OC=O,436.15,7,"[1, 6, 8]",3,True,CHO,ester
944,3-Methylcyclohexanol,CC1CCCC(C1)O,436.15,7,"[1, 6, 8]",3,True,CHO,alcohol
945,2-Ethylhexanal,CCCCC(CC)C=O,436.15,8,"[1, 6, 8]",3,True,CHO,aldehyde
946,4-Octanone,CCCCC(=O)CCC,436.15,8,"[1, 6, 8]",3,True,CHO,ketone
947,"1-Pentanol, 2-Methyl-, Acetate",CCCC(C)COC(=O)C,436.15,8,"[1, 6, 8]",3,True,CHO,ester
948,"Pentanoic Acid, 4-Methyl-, Ethyl Ester",CCOC(=O)CCC(C)C,436.15,8,"[1, 6, 8]",3,True,CHO,ester
949,Benzoylformic Acid,C1=CC=C(C=C1)C(=O)C(=O)O,436.15,8,"[1, 6, 8]",3,True,CHO,carboxylic_acid
950,Methyl Oxalate,COC(=O)C(=O)OC,436.65,4,"[1, 6, 8]",3,True,CHO,ester
951,Butyric Acid,CCCC(=O)O,436.65,4,"[1, 6, 8]",3,True,CHO,alcohol
952,Coniferyl Alcohol,COC1=C(C=CC(=C1)/C=C/CO)O,437.15,10,"[1, 6, 8]",3,True,CHO,ester
953,2-Cyclohexen-1-Ol,C1CC=CC(C1)O,437.15,6,"[1, 6, 8]",3,True,CHO,alkene
954,3-Cyclohexen-1-Ol,C1CC(CC=C1)O,437.15,6,"[1, 6, 8]",3,True,CHO,alkene
955,"2-Heptanone, 3-Methyl-",CCCCC(C)C(=O)C,437.15,8,"[1, 6, 8]",3,True,CHO,ketone
956,Ethyl Isoamyl Ketone,CCC(=O)CCC(C)C,437.15,8,"[1, 6, 8]",3,True,CHO,ketone
957,"4-Heptanol, 2-Methyl-",CCCC(CC(C)C)O,437.15,8,"[1, 6, 8]",3,True,CHO,alcohol
958,2-Methylcyclohexanol,CC1CCCCC1O,437.65,7,"[1, 6, 8]",3,True,CHO,alcohol
959,Glycidyl N-Butyl Ether,CCCCOCC1CO1,438.15,7,"[1, 6, 8]",3,True,CHO,ester
960,1-Isobutoxy-2-Propanol,CC(C)COCC(C)O,438.15,7,"[1, 6, 8]",3,True,CHO,ester
961,"2-Hexen-1-Ol, Acetate, (2e)-",CCCC=CCOC(=O)C,438.65,8,"[1, 6, 8]",3,True,CHO,ester
962,"2-Hexanol, 3,4-Dimethyl-",CCC(C)C(C)C(C)O,438.65,8,"[1, 6, 8]",3,True,CHO,alcohol
963,"Propane, 1,1'-[methylenebis(oxy)]bis[2-Methyl-",CC(C)COCOCC(C)C,438.65,9,"[1, 6, 8]",3,True,CHO,ester
964,2-Heptenal,CCCC/C=C/C=O,439.15,7,"[1, 6, 8]",3,True,CHO,alkene
965,1-Ethylcyclohexanol,CCC1(CCCCC1)O,439.15,8,"[1, 6, 8]",3,True,CHO,alcohol
966,"Heptane, 1-Ethoxy-",CCCCCCCOCC,439.15,9,"[1, 6, 8]",3,True,CHO,ester
967,3-Methyl-2-Heptanol,CCCCC(C)C(C)O,439.25,8,"[1, 6, 8]",3,True,CHO,alcohol
968,"4h-Pyran-4-One, Tetrahydro-",C1COCCC1=O,439.65,5,"[1, 6, 8]",3,True,CHO,ester
969,"4-Hepten-3-One, 5-Methyl-",CC/C(=C/C(=O)CC)/C,439.65,8,"[1, 6, 8]",3,True,CHO,alkene
970,"3-Hexenoic Acid, Ethyl Ester",CC/C=C/CC(=O)OCC,439.65,8,"[1, 6, 8]",3,True,CHO,ester
971,"Propane, 2,2',2''-[methylidynetris(oxy)]tris-",CC(C)OC(OC(C)C)OC(C)C,440.15,10,"[1, 6, 8]",3,True,CHO,ester
972,Ethyl Benzoylacetate,CCOC(=O)CC(=O)C1=CC=CC=C1,440.15,11,"[1, 6, 8]",3,True,CHO,ester
973,2-Hydroxy-Propionic Acid Isopropyl Ester,CC(C)OC(=O)C(C)O,440.15,6,"[1, 6, 8]",3,True,CHO,ester
974,"Ethanol, 2,2-Diethoxy-",CCOC(CO)OCC,440.15,6,"[1, 6, 8]",3,True,CHO,ester
975,"2-Heptanone, 6-Methyl-",CC(C)CCCC(=O)C,440.15,8,"[1, 6, 8]",3,True,CHO,ketone
976,Ethyl Hexanoate,CCCCCC(=O)OCC,440.15,8,"[1, 6, 8]",3,True,CHO,ester
977,Oxiranemethanol,C1C(O1)CO,440.15,3,"[1, 6, 8]",3,True,CHO,ester
978,"2-Penten-1-Ol, 2-Methyl-",CC/C=C(\C)/CO,440.65,6,"[1, 6, 8]",3,True,CHO,alkene
979,3-Octanone,CCCCCC(=O)CC,440.65,8,"[1, 6, 8]",3,True,CHO,ketone
980,"Pentanoic Acid, Propyl Ester",CCCCC(=O)OCCC,440.65,8,"[1, 6, 8]",3,True,CHO,ester
981,4-Hydroxy-4-Methyl-2-Pentanone,CC(=O)CC(C)(C)O,441.04999999999995,6,"[1, 6, 8]",3,True,CHO,alcohol
982,"Carbonic Acid, Dipropyl Ester",CCCOC(=O)OCCC,441.15,7,"[1, 6, 8]",3,True,CHO,ester
983,"4,5-Octanedione",CCCC(=O)C(=O)CCC,441.15,8,"[1, 6, 8]",3,True,CHO,ketone
984,2-Butoxyethanol,CCCCOCCO,441.54999999999995,6,"[1, 6, 8]",3,True,CHO,ester
985,Isobutyl Isovalerate,CC(C)CC(=O)OCC(C)C,441.65,9,"[1, 6, 8]",3,True,CHO,ester
986,"Propanoic Acid, 2-Methyl-, 3-Methylbutyl Ester",CC(C)CCOC(=O)C(C)C,441.65,9,"[1, 6, 8]",3,True,CHO,ester
987,Amyl Propionate,CCCCCOC(=O)CC,441.75,8,"[1, 6, 8]",3,True,CHO,ester
988,3-Butenoic Acid,C=CCC(=O)O,442.15,4,"[1, 6, 8]",3,True,CHO,alkene
989,"2-Propanol, 1,3-Dimethoxy-",COCC(COC)O,442.15,5,"[1, 6, 8]",3,True,CHO,ester
990,"1,1-Ethanediol, Diacetate",CC(OC(=O)C)OC(=O)C,442.15,6,"[1, 6, 8]",3,True,CHO,ester
991,"2,6-Dimethyl-4-Heptanone",CC(C)CC(=O)CC(C)C,442.54999999999995,9,"[1, 6, 8]",3,True,CHO,ketone
992,3-Methylcyclohexanone,CC1CCCC(=O)C1,442.65,7,"[1, 6, 8]",3,True,CHO,ketone
993,Ethoxybenzene,CCOC1=CC=CC=C1,442.95,8,"[1, 6, 8]",3,True,CHO,ester
994,"1,2,3-Trihydroxybutane",CC(C(CO)O)O,443.15,4,"[1, 6, 8]",3,True,CHO,alcohol
995,Propionic Anhydride,CCC(=O)OC(=O)CC,443.15,6,"[1, 6, 8]",3,True,CHO,ether
996,"1,2,6-Hexanetriol",C(CCO)CC(CO)O,443.15,6,"[1, 6, 8]",3,True,CHO,alcohol
997,2-Cyclohexene-1-One,C1CC=CC(=O)C1,443.15,6,"[1, 6, 8]",3,True,CHO,alkene
998,Cyclohex-3-Enone,C1CC(=O)CC=C1,443.15,6,"[1, 6, 8]",3,True,CHO,alkene
999,4-Methylcyclohexanone,CC1CCC(=O)CC1,443.15,7,"[1, 6, 8]",3,True,CHO,ketone
1000,"1-Hexanol, 5-Methyl-",CC(C)CCCCO,443.15,7,"[1, 6, 8]",3,True,CHO,alcohol
1001,Benzyl Methyl Ether,COCC1=CC=CC=C1,443.15,8,"[1, 6, 8]",3,True,CHO,ester
1002,"2-Heptanol, 5-Methyl-",CCC(C)CCC(C)O,443.15,8,"[1, 6, 8]",3,True,CHO,alcohol
1003,M-Methoxybenzoic Acid,COC1=CC=CC(=C1)C(=O)O,443.15,8,"[1, 6, 8]",3,True,CHO,carboxylic_acid
1004,"Carbonic Acid, Dibutyl Ester",CCCCOC(=O)OCCCC,443.15,9,"[1, 6, 8]",3,True,CHO,ester
1005,"2,2,3-Trimethyl-Hexan-3-Ol",CCCC(C)(C(C)(C)C)O,443.15,9,"[1, 6, 8]",3,True,CHO,alcohol
1006,"Butanoic Acid, 3-Methyl-2-Oxo-",CC(C)C(=O)C(=O)O,443.65,5,"[1, 6, 8]",3,True,CHO,carboxylic_acid
1007,"Undecanal, 2-Methyl-",CCCCCCCCCC(C)C=O,444.15,12,"[1, 6, 8]",3,True,CHO,aldehyde
1008,2-Hydroxymethylfuran,C1=COC(=C1)CO,444.15,5,"[1, 6, 8]",3,True,CHO,aromatic
1009,"2-Propanone, 1-(acetyloxy)-",CC(=O)COC(=O)C,444.15,5,"[1, 6, 8]",3,True,CHO,ester
1010,2-Methylanisole,CC1=CC=CC=C1OC,444.15,8,"[1, 6, 8]",3,True,CHO,ester
1011,Octanal,CCCCCCCC=O,444.15,8,"[1, 6, 8]",3,True,CHO,aldehyde