,Name,SMILES,Tb,C Atom,Atom,Count Unique Atom,Pass Screen,Atom2,Func. Group
7634,methyl 2-(1-methylpyridin-4-ylidene)acetate,CN1C=CC(=CC(=O)OC)C=C1,501.09,9,"[1, 6, 7, 8]",4,True,CHON,ester
7635,diethyl (Z)-2-methylbut-2-enedioate,CCOC(=O)/C=C(/C)\C(=O)OCC,501.15,9,"[1, 6, 8]",3,True,CHO,ester
7636,"2,6-dimethylhept-5-en-1-ol",CC(CCC=C(C)C)CO,501.3,9,"[1, 6, 8]",3,True,CHO,alkene
7637,(Z)-non-3-en-1-ol,CCCCC/C=C\CCO,501.86,9,"[1, 6, 8]",3,True,CHO,alkene
7638,non-2-en-1-ol,CCCCCCC=CCO,501.86,9,"[1, 6, 8]",3,True,CHO,alkene
7639,(E)-non-6-en-1-ol,CC/C=C/CCCCCO,501.86,9,"[1, 6, 8]",3,True,CHO,alkene
7640,2-cycloheptylethanamine,C1CCCC(CC1)CCN,501.87,9,"[1, 6, 7]",3,True,CHN,amine
7641,3-ethenylbicyclo[2.2.1]hept-5-en-2-ol,C=CC1C2CC(C1O)C=C2,501.95,9,"[1, 6, 8]",3,True,CHO,alkene
7642,3-methyl-2-propan-2-ylcyclopent-2-en-1-one,CC1=C(C(=O)CC1)C(C)C,501.97,9,"[1, 6, 8]",3,True,CHO,alkene
7643,"2-ethenyl-4,4,6-trimethyl-5,6-dihydro-1,3-oxazine",CC1CC(N=C(O1)C=C)(C)C,502.11,9,"[1, 6, 7, 8]",4,True,CHON,ester
7644,4-ethyl-3-methylphenol,CCC1=C(C=C(C=C1)O)C,502.15,9,"[1, 6, 8]",3,True,CHO,aromatic
7645,dipropyl propanedioate,CCCOC(=O)CC(=O)OCCC,502.35,9,"[1, 6, 8]",3,True,CHO,ester
7646,2-(azocan-1-yl)ethanamine,C1CCCN(CCC1)CCN,502.65,9,"[1, 6, 7]",3,True,CHN,amine
7647,"N'-[3-(dimethylamino)propyl]-N'-methylpropane-1,3-diamine",CN(C)CCCN(C)CCCN,502.93,9,"[1, 6, 7]",3,True,CHN,amine
7648,"N-tert-butyl-2,2-dimethylpropanamide",CC(C)(C)C(=O)NC(C)(C)C,503.1,9,"[1, 6, 7, 8]",4,True,CHON,amide
7649,5-ethoxy-2-hydroxybenzaldehyde,CCOC1=CC(=C(C=C1)O)C=O,503.15,9,"[1, 6, 8]",3,True,CHO,ester
7650,4-methyloct-2-yn-4-ol,CCCCC(C)(C#CC)O,503.47,9,"[1, 6, 8]",3,True,CHO,alkyne
7651,1-butylpyridin-2-one,CCCCN1C=CC=CC1=O,504.05,9,"[1, 6, 7, 8]",4,True,CHON,aromatic
7652,2-propan-2-ylidenecyclohexan-1-one,CC(=C1CCCCC1=O)C,504.08,9,"[1, 6, 8]",3,True,CHO,alkene
7653,"3,5,5-trimethylhexanoic acid",CC(CC(=O)O)CC(C)(C)C,504.15,9,"[1, 6, 8]",3,True,CHO,alcohol
7654,N-octylformamide,CCCCCCCCNC=O,504.35,9,"[1, 6, 7, 8]",4,True,CHON,amide
7655,ethyl 2-cyanohexanoate,CCCCC(C#N)C(=O)OCC,504.65,9,"[1, 6, 7, 8]",4,True,CHON,ester
7656,"N,N'-di(propan-2-yl)propane-1,3-diamine",CC(C)NCCCNC(C)C,504.98,9,"[1, 6, 7]",3,True,CHN,amine
7657,2-(2-methoxyethoxy)ethyl 2-methylprop-2-enoate,CC(=C)C(=O)OCCOCCOC,505.14,9,"[1, 6, 8]",3,True,CHO,ester
7658,"2,3,4,5-tetramethylpyridine",CC1=CN=C(C(=C1C)C)C,505.15,9,"[1, 6, 7]",3,True,CHN,aromatic
7659,ethyl (E)-3-(furan-2-yl)prop-2-enoate,CCOC(=O)/C=C/C1=CC=CO1,505.15,9,"[1, 6, 8]",3,True,CHO,ester
7660,"5,6-dimethylheptane-1,6-diamine",CC(CCCCN)C(C)(C)N,505.15,9,"[1, 6, 7]",3,True,CHN,amine
7661,2-[(dimethylamino)methyl]cyclohexan-1-one,CN(C)CC1CCCCC1=O,505.33,9,"[1, 6, 7, 8]",4,True,CHON,ketone
7662,"ethyl 2,2-diethoxypropanoate",CCOC(=O)C(C)(OCC)OCC,505.35,9,"[1, 6, 8]",3,True,CHO,ester
7663,"3,7-dimethyl-6,7-dihydro-5H-cyclopenta[b]pyrazine",CC1CCC2=NC(=CN=C12)C,505.79,9,"[1, 6, 7]",3,True,CHN,aromatic
7664,2-methyloct-5-yn-4-ol,CCC#CC(CC(C)C)O,505.82,9,"[1, 6, 8]",3,True,CHO,alkyne
7665,"1-azatricyclo[3.3.1.13,7]decan-4-one",C1C2CC3CN(C2)CC1C3=O,506.0,9,"[1, 6, 7, 8]",4,True,CHON,ketone
7666,"(3Z,6Z)-nona-3,6-dien-1-ol",CC/C=C\C/C=C\CCO,506.02,9,"[1, 6, 8]",3,True,CHO,alkene
7667,"nona-3,5-dien-1-ol",CCCC=CC=CCCO,506.02,9,"[1, 6, 8]",3,True,CHO,alkene
7668,"nona-3,6-dien-1-ol",CCC=CCC=CCCO,506.02,9,"[1, 6, 8]",3,True,CHO,alkene
7669,"(3Z,6E)-nona-3,6-dien-1-ol",CC/C=C/C/C=C\CCO,506.02,9,"[1, 6, 8]",3,True,CHO,alkene
7670,(3-methyl-2-bicyclo[2.2.1]heptanyl)methanol,CC1C2CCC(C2)C1CO,506.11,9,"[1, 6, 8]",3,True,CHO,alcohol
7671,non-5-yn-3-ol,CCCC#CCC(CC)O,506.26,9,"[1, 6, 8]",3,True,CHO,alkyne
7672,non-2-yn-1-ol,CCCCCCC#CCO,506.7,9,"[1, 6, 8]",3,True,CHO,alkyne
7673,2-ethenylbicyclo[2.2.1]hept-5-en-2-ol,C=CC1(CC2CC1C=C2)O,506.86,9,"[1, 6, 8]",3,True,CHO,alkene
7674,3-ethyl-4-methylphenol,CCC1=C(C=CC(=C1)O)C,507.65,9,"[1, 6, 8]",3,True,CHO,aromatic
7675,"(2,6-dimethylcyclohexyl)methanol",CC1CCCC(C1CO)C,507.91,9,"[1, 6, 8]",3,True,CHO,alcohol
7676,propyl pyridine-3-carboxylate,CCCOC(=O)C1=CN=CC=C1,508.15,9,"[1, 6, 7, 8]",4,True,CHON,ester
7677,"2,3-dihydro-1H-inden-4-amine",C1CC2=C(C1)C(=CC=C2)N,508.15,9,"[1, 6, 7]",3,True,CHN,aromatic
7678,methyl N-methyl-N-phenylcarbamate,CN(C1=CC=CC=C1)C(=O)OC,508.15,9,"[1, 6, 7, 8]",4,True,CHON,ester
7679,"1,4-diethyl-2,6,7-trioxabicyclo[2.2.2]octane",CCC12COC(OC1)(OC2)CC,508.87,9,"[1, 6, 8]",3,True,CHO,ester
7680,"ethyl (E)-2,4-dimethylpent-2-enoate",CCOC(=O)/C(=C/C(C)C)/C,508.87,9,"[1, 6, 8]",3,True,CHO,ester
7681,N-butylpentanamide,CCCCC(=O)NCCCC,509.56,9,"[1, 6, 7, 8]",4,True,CHON,amide
7682,N-hexylpropanamide,CCCCCCNC(=O)CC,509.56,9,"[1, 6, 7, 8]",4,True,CHON,amide
7683,5-(diethylamino)pentan-2-ol,CCN(CC)CCCC(C)O,509.7,9,"[1, 6, 7, 8]",4,True,CHON,alcohol
7684,"2,2-dimethylheptane-3,5-dione",CCC(=O)CC(=O)C(C)(C)C,510.03,9,"[1, 6, 8]",3,True,CHO,ketone
7685,5-(diethylamino)pentan-1-ol,CCN(CC)CCCCCO,510.14,9,"[1, 6, 7, 8]",4,True,CHON,alcohol
7686,(dibutylamino)methanol,CCCCN(CCCC)CO,510.14,9,"[1, 6, 7, 8]",4,True,CHON,alcohol
7687,"4-methoxy-N,N-dimethylaniline",CN(C)C1=CC=C(C=C1)OC,510.15,9,"[1, 6, 7, 8]",4,True,CHON,ester
7688,2-methoxy-2-phenylethanol,COC(CO)C1=CC=CC=C1,510.15,9,"[1, 6, 8]",3,True,CHO,ester
7689,4-ethylbenzonitrile,CCC1=CC=C(C=C1)C#N,510.15,9,"[1, 6, 7]",3,True,CHN,aromatic
7690,methyl 2-hydroxy-5-methoxybenzoate,COC1=CC(=C(C=C1)O)C(=O)OC,510.65,9,"[1, 6, 8]",3,True,CHO,ester
7691,(E)-non-6-enenitrile,CC/C=C/CCCCC#N,511.76,9,"[1, 6, 7]",3,True,CHN,alkene
7692,1-ethynylcycloheptan-1-ol,C#CC1(CCCCCC1)O,511.88,9,"[1, 6, 8]",3,True,CHO,alkyne
7693,2-propan-2-ylcyclohexan-1-ol,CC(C)C1CCCCC1O,512.14,9,"[1, 6, 8]",3,True,CHO,alcohol
7694,1-(4-methylcyclohexyl)ethanol,CC1CCC(CC1)C(C)O,512.14,9,"[1, 6, 8]",3,True,CHO,alcohol
7695,"2,3,4-trimethylaniline",CC1=C(C(=C(C=C1)N)C)C,512.15,9,"[1, 6, 7]",3,True,CHN,aromatic
7696,1-(furan-3-yl)-4-hydroxypentan-1-one,CC(CCC(=O)C1=COC=C1)O,512.15,9,"[1, 6, 8]",3,True,CHO,aromatic
7697,"2,4-dimethylheptane-3,5-dione",CCC(=O)C(C)C(=O)C(C)C,512.38,9,"[1, 6, 8]",3,True,CHO,ketone
7698,4-propylcyclohexan-1-ol,CCCC1CCC(CC1)O,512.58,9,"[1, 6, 8]",3,True,CHO,alcohol
7699,"ethyl 3,3-diethoxyprop-2-enoate",CCOC(=CC(=O)OCC)OCC,512.62,9,"[1, 6, 8]",3,True,CHO,ester
7700,1-ethyl-2-methylcyclohexan-1-ol,CCC1(CCCCC1C)O,512.82,9,"[1, 6, 8]",3,True,CHO,alcohol
7701,2-isocyanato-1-methoxy-4-methylbenzene,CC1=CC(=C(C=C1)OC)N=C=O,513.15,9,"[1, 6, 7, 8]",4,True,CHON,ester
7702,"nonane-2,4-dione",CCCCCC(=O)CC(=O)C,513.26,9,"[1, 6, 8]",3,True,CHO,ketone
7703,"nonane-2,8-dione",CC(=O)CCCCCC(=O)C,513.26,9,"[1, 6, 8]",3,True,CHO,ketone
7704,1-cyclohexylprop-2-en-1-ol,C=CC(C1CCCCC1)O,513.49,9,"[1, 6, 8]",3,True,CHO,alkene
7705,"4,4,6-trimethyl-7-oxabicyclo[4.1.0]heptan-2-one",CC1(CC(=O)C2C(C1)(O2)C)C,513.85,9,"[1, 6, 8]",3,True,CHO,ester
7706,1-[3-(dimethylamino)propyl]pyrrolidin-2-one,CN(C)CCCN1CCCC1=O,513.9,9,"[1, 6, 7, 8]",4,True,CHON,amide
7707,butyl N-butylcarbamate,CCCCNC(=O)OCCCC,513.91,9,"[1, 6, 7, 8]",4,True,CHON,ester
7708,2-cyclohexylpropan-2-ol,CC(C)(C1CCCCC1)O,514.02,9,"[1, 6, 8]",3,True,CHO,alcohol
7709,1-ethylazocan-5-one,CCN1CCCC(=O)CCC1,514.27,9,"[1, 6, 7, 8]",4,True,CHON,ketone
7710,"ethyl 4,4-dimethyl-3-oxopentanoate",CCOC(=O)CC(=O)C(C)(C)C,514.38,9,"[1, 6, 8]",3,True,CHO,ester
7711,"2,2,3-trimethylcyclopent-3-ene-1-carboxylic acid",CC1=CCC(C1(C)C)C(=O)O,514.65,9,"[1, 6, 8]",3,True,CHO,alkene
7712,2-prop-2-enoyloxypropyl prop-2-enoate,CC(COC(=O)C=C)OC(=O)C=C,514.88,9,"[1, 6, 8]",3,True,CHO,ester
7713,1-[2-(2-ethenoxyethoxy)ethoxy]-2-methoxyethane,COCCOCCOCCOC=C,515.15,9,"[1, 6, 8]",3,True,CHO,ester
7714,3-prop-2-enoyloxypropyl prop-2-enoate,C=CC(=O)OCCCOC(=O)C=C,515.32,9,"[1, 6, 8]",3,True,CHO,ester
7715,"3,5,6-trimethylidene-7-oxabicyclo[2.2.1]heptan-2-one",C=C1C2C(=C)C(=O)C(C1=C)O2,515.52,9,"[1, 6, 8]",3,True,CHO,ester
7716,3-ethoxybenzonitrile,CCOC1=CC=CC(=C1)C#N,515.65,9,"[1, 6, 7, 8]",4,True,CHON,ester
7717,"2,3,4,6,7,8,9,10-octahydropyrimido[1,2-a]azepine",C1CCC2=NCCCN2CC1,515.7,9,"[1, 6, 7]",3,True,CHN,amine
7718,"3,11-diazatetracyclo[6.3.0.02,6.05,9]undecane",C1C2C3CNC2C4C1C3CN4,515.97,9,"[1, 6, 7]",3,True,CHN,amine
7719,2-cyclohexylpropan-1-ol,CC(CO)C1CCCCC1,516.81,9,"[1, 6, 8]",3,True,CHO,alcohol
7720,"3,5,5-trimethylcyclohex-2-en-1-ol",CC1=CC(CC(C1)(C)C)O,516.96,9,"[1, 6, 8]",3,True,CHO,alkene
7721,methyl 2-ethyl-3-oxohexanoate,CCCC(=O)C(CC)C(=O)OC,517.17,9,"[1, 6, 8]",3,True,CHO,ester
7722,methyl 3-oxooctanoate,CCCCCC(=O)CC(=O)OC,517.61,9,"[1, 6, 8]",3,True,CHO,ester
7723,"bicyclo[4.2.1]nona-2,4-dien-9-ol",C1CC2C=CC=CC1C2O,517.64,9,"[1, 6, 8]",3,True,CHO,alkene
7724,"2,3-dihydro-1H-inden-4-ol",C1CC2=C(C1)C(=CC=C2)O,518.15,9,"[1, 6, 8]",3,True,CHO,aromatic
7725,(NE)-N-(1-phenylpropylidene)hydroxylamine,CC/C(=N\O)/C1=CC=CC=C1,518.15,9,"[1, 6, 7, 8]",4,True,CHON,aromatic
7726,2-(2-methoxyphenyl)acetaldehyde,COC1=CC=CC=C1CC=O,518.15,9,"[1, 6, 8]",3,True,CHO,ester
7727,"N,N'-dimethyl-N'-[3-(methylamino)propyl]propane-1,3-diamine",CNCCCN(C)CCCNC,518.3,9,"[1, 6, 7]",3,True,CHN,amine
7728,bicyclo[4.2.1]non-3-en-9-ol,C1CC2CC=CCC1C2O,518.48,9,"[1, 6, 8]",3,True,CHO,alkene
7729,1-methylazonan-2-one,CN1CCCCCCCC1=O,518.54,9,"[1, 6, 7, 8]",4,True,CHON,amide
7730,3-(dimethylamino)bicyclo[2.2.1]heptan-2-ol,CN(C)C1C2CCC(C2)C1O,518.55,9,"[1, 6, 7, 8]",4,True,CHON,alcohol
7731,N-[3-(dimethylamino)propyl]-2-methylprop-2-enamide,CC(=C)C(=O)NCCCN(C)C,518.56,9,"[1, 6, 7, 8]",4,True,CHON,amide
7732,6-O-ethenyl 1-O-methyl hexanedioate,COC(=O)CCCCC(=O)OC=C,518.64,9,"[1, 6, 8]",3,True,CHO,ester
7733,bis(2-ethoxyethyl) carbonate,CCOCCOC(=O)OCCOCC,518.65,9,"[1, 6, 8]",3,True,CHO,ester
7734,4-O-tert-butyl 1-O-methyl butanedioate,CC(C)(C)OC(=O)CCC(=O)OC,518.73,9,"[1, 6, 8]",3,True,CHO,ester
7735,"dimethyl 3,3-dimethylpentanedioate",CC(C)(CC(=O)OC)CC(=O)OC,518.73,9,"[1, 6, 8]",3,True,CHO,ester
7736,"dimethyl 2,2-diethylpropanedioate",CCC(CC)(C(=O)OC)C(=O)OC,518.73,9,"[1, 6, 8]",3,True,CHO,ester
7737,3-O-tert-butyl 1-O-ethyl propanedioate,CCOC(=O)CC(=O)OC(C)(C)C,518.73,9,"[1, 6, 8]",3,True,CHO,ester
7738,"2-(2,4-dimethylpentan-3-yloxy)ethanol",CC(C)C(C(C)C)OCCO,518.8,9,"[1, 6, 8]",3,True,CHO,ester
7739,2-hexan-3-yloxypropan-1-ol,CCCC(CC)OC(C)CO,519.24,9,"[1, 6, 8]",3,True,CHO,ester
7740,2-(diethylamino)pentanenitrile,CCCC(C#N)N(CC)CC,519.6,9,"[1, 6, 7]",3,True,CHN,amine
7741,"1-ethyl-2,3,4,6,7,8-hexahydropyrimido[1,2-a]pyrimidine",CCN1CCCN2C1=NCCC2,519.6,9,"[1, 6, 7]",3,True,CHN,amine
7742,2-heptan-3-yloxyethanol,CCCCC(CC)OCCO,519.68,9,"[1, 6, 8]",3,True,CHO,ester
7743,"3-methoxy-5,5-dimethylcyclohex-2-en-1-one",CC1(CC(=CC(=O)C1)OC)C,519.69,9,"[1, 6, 8]",3,True,CHO,ester
7744,3-(dipropylamino)propanenitrile,CCCN(CCC)CCC#N,520.04,9,"[1, 6, 7]",3,True,CHN,amine
7745,2-heptoxyethanol,CCCCCCCOCCO,520.12,9,"[1, 6, 8]",3,True,CHO,ester
7746,"2,3-dihydro-1H-inden-2-amine",C1C(CC2=CC=CC=C21)N,520.15,9,"[1, 6, 7]",3,True,CHN,aromatic
7747,"dimethyl 2,4-dimethylpentanedioate",CC(CC(C)C(=O)OC)C(=O)OC,521.08,9,"[1, 6, 8]",3,True,CHO,ester
7748,4-acetyloxypentan-2-yl acetate,CC(CC(C)OC(=O)C)OC(=O)C,521.08,9,"[1, 6, 8]",3,True,CHO,ester
7749,dipropan-2-yl propanedioate,CC(C)OC(=O)CC(=O)OC(C)C,521.08,9,"[1, 6, 8]",3,True,CHO,ester
7750,dimethyl 2-(2-methylpropyl)propanedioate,CC(C)CC(C(=O)OC)C(=O)OC,521.08,9,"[1, 6, 8]",3,True,CHO,ester
7751,2-(3-methylphenyl)acetonitrile,CC1=CC(=CC=C1)CC#N,521.15,9,"[1, 6, 7]",3,True,CHN,aromatic
7752,2-cycloheptylethanol,C1CCCC(CC1)CCO,521.52,9,"[1, 6, 8]",3,True,CHO,alcohol
7753,dimethyl 2-methylhexanedioate,CC(CCCC(=O)OC)C(=O)OC,521.52,9,"[1, 6, 8]",3,True,CHO,ester
7754,methyl 5-acetyloxyhexanoate,CC(CCCC(=O)OC)OC(=O)C,521.52,9,"[1, 6, 8]",3,True,CHO,ester
7755,dimethyl 3-methylhexanedioate,CC(CCC(=O)OC)CC(=O)OC,521.52,9,"[1, 6, 8]",3,True,CHO,ester
7756,4-cyclopentylbut-3-yn-2-ol,CC(C#CC1CCCC1)O,521.54,9,"[1, 6, 8]",3,True,CHO,alkyne
7757,methyl (E)-3-oxooct-6-enoate,C/C=C/CCC(=O)CC(=O)OC,521.77,9,"[1, 6, 8]",3,True,CHO,ester
7758,1-but-1-ynylcyclopentan-1-ol,CCC#CC1(CCCC1)O,522.22,9,"[1, 6, 8]",3,True,CHO,alkyne
7759,"1,3-bis(prop-2-ynoxy)propan-2-ol",C#CCOCC(COCC#C)O,522.34,9,"[1, 6, 8]",3,True,CHO,ester
7760,ethyl 3-morpholin-4-ylpropanoate,CCOC(=O)CCN1CCOCC1,523.08,9,"[1, 6, 7, 8]",4,True,CHON,ester
7761,"N'-benzylethane-1,2-diamine",C1=CC=C(C=C1)CNCCN,523.15,9,"[1, 6, 7]",3,True,CHN,aromatic
7762,2-(2-ethoxyethoxy)ethyl prop-2-enoate,CCOCCOCCOC(=O)C=C,523.15,9,"[1, 6, 8]",3,True,CHO,ester
7763,bicyclo[2.2.2]oct-5-ene-2-carbonitrile,C1CC2C=CC1CC2C#N,524.11,9,"[1, 6, 7]",3,True,CHN,alkene
7764,"nona-2,4,6,8-tetraynenitrile",C#CC#CC#CC#CC#N,524.72,9,"[1, 6, 7]",3,True,CHN,alkyne
7765,"2,2-diethylpent-4-enamide",CCC(CC)(CC=C)C(=O)N,525.37,9,"[1, 6, 7, 8]",4,True,CHON,alkene
7766,3-(2-methylpiperidin-1-yl)propan-1-ol,CC1CCCCN1CCCO,525.42,9,"[1, 6, 7, 8]",4,True,CHON,alcohol
7767,N-cyclohexylprop-2-enamide,C=CC(=O)NC1CCCCC1,525.79,9,"[1, 6, 7, 8]",4,True,CHON,alkene
7768,cyclooctylmethanol,C1CCCC(CCC1)CO,525.79,9,"[1, 6, 8]",3,True,CHO,alcohol
7769,dimethyl 2-propan-2-ylidenebutanedioate,CC(=C(CC(=O)OC)C(=O)OC)C,525.88,9,"[1, 6, 8]",3,True,CHO,ester
7770,diethyl 2-ethylidenepropanedioate,CCOC(=O)C(=CC)C(=O)OCC,526.0,9,"[1, 6, 8]",3,True,CHO,ester
7771,1-methylcyclooctan-1-ol,CC1(CCCCCCC1)O,526.03,9,"[1, 6, 8]",3,True,CHO,alcohol
7772,ethyl 6-isocyanatohexanoate,CCOC(=O)CCCCCN=C=O,526.15,9,"[1, 6, 7, 8]",4,True,CHON,ester
7773,(2-cyanophenyl) acetate,CC(=O)OC1=CC=CC=C1C#N,526.15,9,"[1, 6, 7, 8]",4,True,CHON,ester
7774,"2,4-dimethylcyclohex-3-ene-1-carbonitrile",CC1C=C(CCC1C#N)C,526.62,9,"[1, 6, 7]",3,True,CHN,alkene
7775,"1-(1,1-diethoxyethyl)imidazole",CCOC(C)(N1C=CN=C1)OCC,527.27,9,"[1, 6, 7, 8]",4,True,CHON,ester
7776,methyl 2-[2-(2-ethenoxyethoxy)ethoxy]acetate,COC(=O)COCCOCCOC=C,527.68,9,"[1, 6, 8]",3,True,CHO,ester
7777,5-amino-2-phenyl-4H-pyrazol-3-one,C1C(=NN(C1=O)C2=CC=CC=C2)N,528.15,9,"[1, 6, 7, 8]",4,True,CHON,aromatic
7778,"ethyl 2-(2,4-dimethyl-1,3-dioxolan-2-yl)acetate",CCOC(=O)CC1(OCC(O1)C)C,528.49,9,"[1, 6, 8]",3,True,CHO,ester
7779,"2,3,3-trimethylcyclopentene-1-carboxylic acid",CC1=C(CCC1(C)C)C(=O)O,528.65,9,"[1, 6, 8]",3,True,CHO,alkene
7780,N-cyclohexylpropanamide,CCC(=O)NC1CCCCC1,529.11,9,"[1, 6, 7, 8]",4,True,CHON,amide
7781,ethyl 2-isocyanato-4-methylpentanoate,CCOC(=O)C(CC(C)C)N=C=O,529.53,9,"[1, 6, 7, 8]",4,True,CHON,ester
7782,3-(2-ethylbutoxy)propanenitrile,CCC(CC)COCCC#N,529.58,9,"[1, 6, 7, 8]",4,True,CHON,ester
7783,"nonane-1,9-diamine",C(CCCCN)CCCCN,531.65,9,"[1, 6, 7]",3,True,CHN,amine
7784,nonanamide,CCCCCCCCC(=O)N,531.92,9,"[1, 6, 7, 8]",4,True,CHON,amide
7785,2-[2-(diethylamino)ethoxy]propan-1-ol,CCN(CC)CCOC(C)CO,532.12,9,"[1, 6, 7, 8]",4,True,CHON,ester
7786,1-butoxy-3-(dimethylamino)propan-2-ol,CCCCOCC(CN(C)C)O,532.12,9,"[1, 6, 7, 8]",4,True,CHON,ester
7787,"dimethyl cyclopentane-1,2-dicarboxylate",COC(=O)C1CCCC1C(=O)OC,532.57,9,"[1, 6, 8]",3,True,CHO,ester
7788,"1,5-dimethylindazole",CC1=CC2=C(C=C1)N(N=C2)C,533.15,9,"[1, 6, 7]",3,True,CHN,aromatic
7789,"ethyl 3-(2-methyl-1,3-dioxolan-2-yl)propanoate",CCOC(=O)CCC1(OCCO1)C,533.16,9,"[1, 6, 8]",3,True,CHO,ester
7790,2-ethoxybenzonitrile,CCOC1=CC=CC=C1C#N,533.65,9,"[1, 6, 7, 8]",4,True,CHON,ester
7791,3-[(Z)-hex-3-enoxy]propanenitrile,CC/C=C\CCOCCC#N,534.18,9,"[1, 6, 7, 8]",4,True,CHON,ester
7792,N-(3-methylbutyl)-N-(3-oxobutan-2-yl)nitrous amide,CC(C)CCN(C(C)C(=O)C)N=O,534.35,9,"[1, 6, 7, 8]",4,True,CHON,ketone
7793,[4-(methoxymethyl)cyclohexyl]methanol,COCC1CCC(CC1)CO,535.0,9,"[1, 6, 8]",3,True,CHO,ester
7794,N-methyl-N-nitrosooctanamide,CCCCCCCC(=O)N(C)N=O,535.23,9,"[1, 6, 7, 8]",4,True,CHON,amide
7795,"1,3-bis(prop-2-enoxy)propan-2-ol",C=CCOCC(COCC=C)O,535.46,9,"[1, 6, 8]",3,True,CHO,ester
7796,(E)-non-2-enamide,CCCCCC/C=C/C(=O)N,536.08,9,"[1, 6, 7, 8]",4,True,CHON,alkene
7797,1-cyclohexylazetidin-3-ol,C1CCC(CC1)N2CC(C2)O,536.43,9,"[1, 6, 7, 8]",4,True,CHON,alcohol
7798,2-methyl-2-piperidin-1-ylpropanenitrile,CC(C)(C#N)N1CCCCC1,536.76,9,"[1, 6, 7]",3,True,CHN,amine
7799,"3,3-dimethyl-1,5-dioxonane-6,9-dione",CC1(COC(=O)CCC(=O)OC1)C,537.48,9,"[1, 6, 8]",3,True,CHO,ester
7800,(2-ethoxyphenyl)methanol,CCOC1=CC=CC=C1CO,538.15,9,"[1, 6, 8]",3,True,CHO,ester
7801,1-(1-prop-2-enoxypropan-2-yloxy)propan-2-ol,CC(COC(C)COCC=C)O,538.34,9,"[1, 6, 8]",3,True,CHO,ester
7802,1-ethoxy-3-[(2-methylpropan-2-yl)oxy]propan-2-ol,CCOCC(COC(C)(C)C)O,538.87,9,"[1, 6, 8]",3,True,CHO,ester
7803,5-methoxy-1-benzofuran,COC1=CC2=C(C=C1)OC=C2,539.15,9,"[1, 6, 8]",3,True,CHO,ester
7804,non-2-ynamide,CCCCCCC#CC(=O)N,540.92,9,"[1, 6, 7, 8]",4,True,CHON,alkyne
7805,cubane-1-carboxylic acid,C12C3C4C1C5C2C3C45C(=O)O,541.07,9,"[1, 6, 8]",3,True,CHO,alcohol
7806,methyl 4-tert-butylperoxy-4-oxobutanoate,CC(C)(C)OOC(=O)CCC(=O)OC,541.15,9,"[1, 6, 8]",3,True,CHO,ester
7807,non-8-ynoic acid,C#CCCCCCCC(=O)O,541.15,9,"[1, 6, 8]",3,True,CHO,alkyne
7808,tert-butyl 4-methylperoxy-4-oxobutanoate,CC(C)(C)OC(=O)CCC(=O)OOC,541.15,9,"[1, 6, 8]",3,True,CHO,ester
7809,tert-butyl piperazine-1-carboxylate,CC(C)(C)OC(=O)N1CCNCC1,541.45,9,"[1, 6, 7, 8]",4,True,CHON,ester
7810,2-(2-pentoxyethoxy)ethanol,CCCCCOCCOCCO,542.54,9,"[1, 6, 8]",3,True,CHO,ester
7811,"1,1-bis(2-methylpropyl)urea",CC(C)CN(CC(C)C)C(=O)N,543.48,9,"[1, 6, 7, 8]",4,True,CHON,amide
7812,"3,9-dimethyl-2,4,8,10-tetraoxaspiro[5.5]undecane",CC1OCC2(CO1)COC(OC2)C,543.72,9,"[1, 6, 8]",3,True,CHO,ester
7813,4-methyl-2-prop-2-enylpent-4-enoic acid,CC(=C)CC(CC=C)C(=O)O,543.83,9,"[1, 6, 8]",3,True,CHO,alkene
7814,"4-methoxybenzene-1,3-dicarboxylic acid",COC1=C(C=C(C=C1)C(=O)O)C(=O)O,544.15,9,"[1, 6, 8]",3,True,CHO,carboxylic_acid
7815,3-(azepan-1-yl)propanenitrile,C1CCCN(CC1)CCC#N,544.26,9,"[1, 6, 7]",3,True,CHN,amine
7816,"10-methyl-1,4,7-trioxa-10-azacyclododecane",CN1CCOCCOCCOCC1,544.38,9,"[1, 6, 7, 8]",4,True,CHON,ester
7817,2-methylbicyclo[2.2.1]hept-5-ene-2-carboxamide,CC1(CC2CC1C=C2)C(=O)N,544.4,9,"[1, 6, 7, 8]",4,True,CHON,alkene
7818,tert-butyl (E)-4-methylperoxy-4-oxobut-2-enoate,CC(C)(C)OC(=O)/C=C/C(=O)OOC,545.31,9,"[1, 6, 8]",3,True,CHO,ester
7819,methyl (E)-4-tert-butylperoxy-4-oxobut-2-enoate,CC(C)(C)OOC(=O)/C=C/C(=O)OC,545.31,9,"[1, 6, 8]",3,True,CHO,ester
7820,3-methyl-3H-2-benzofuran-1-one,CC1C2=CC=CC=C2C(=O)O1,546.15,9,"[1, 6, 8]",3,True,CHO,ester
7821,ethyl 2-(2-oxocyclopentyl)acetate,CCOC(=O)CC1CCCC1=O,546.84,9,"[1, 6, 8]",3,True,CHO,ester
7822,"5,5-dimethyl-3-(methylamino)cyclohex-2-en-1-one",CC1(CC(=CC(=O)C1)NC)C,547.44,9,"[1, 6, 7, 8]",4,True,CHON,ketone
7823,"2,4,6-triethoxy-1,3,5-triazine",CCOC1=NC(=NC(=N1)OCC)OCC,547.65,9,"[1, 6, 7, 8]",4,True,CHON,ester
7824,"2,4,6-trimethylbenzene-1,3-diol",CC1=CC(=C(C(=C1O)C)O)C,547.65,9,"[1, 6, 8]",3,True,CHO,aromatic
7825,non-8-enoic acid,C=CCCCCCCC(=O)O,547.71,9,"[1, 6, 8]",3,True,CHO,alkene
7826,"N'-cyclohexylpropane-1,3-diamine",C1CCC(CC1)NCCCN,547.77,9,"[1, 6, 7]",3,True,CHN,amine
7827,"3,3-diethylpentanoic acid",CCC(CC)(CC)CC(=O)O,547.8,9,"[1, 6, 8]",3,True,CHO,alcohol
7828,3-ethyl-3-methylhexanoic acid,CCCC(C)(CC)CC(=O)O,547.8,9,"[1, 6, 8]",3,True,CHO,alcohol
7829,N-cyclohexylaziridine-1-carboxamide,C1CCC(CC1)NC(=O)N2CC2,548.69,9,"[1, 6, 7, 8]",4,True,CHON,amide
7830,ethyl 2-oxo-2-piperidin-1-ylacetate,CCOC(=O)C(=O)N1CCCCC1,550.0,9,"[1, 6, 7, 8]",4,True,CHON,ester
7831,(E)-4-hydroxynon-2-enal,CCCCCC(/C=C/C=O)O,550.08,9,"[1, 6, 8]",3,True,CHO,alkene
7832,"2,2-dimethyl-6-oxoheptanoic acid",CC(=O)CCCC(C)(C)C(=O)O,550.15,9,"[1, 6, 8]",3,True,CHO,carboxylic_acid
7833,2-ethyl-3-methylhexanoic acid,CCCC(C)C(CC)C(=O)O,550.15,9,"[1, 6, 8]",3,True,CHO,alcohol
7834,2-methyloctanoic acid,CCCCCCC(C)C(=O)O,550.59,9,"[1, 6, 8]",3,True,CHO,alcohol
7835,2-propylhexanoic acid,CCCCC(CCC)C(=O)O,550.59,9,"[1, 6, 8]",3,True,CHO,alcohol
7836,2-ethylheptanoic acid,CCCCCC(CC)C(=O)O,550.59,9,"[1, 6, 8]",3,True,CHO,alcohol
7837,3-methyloctanoic acid,CCCCCC(C)CC(=O)O,550.59,9,"[1, 6, 8]",3,True,CHO,alcohol
7838,7-methyloctanoic acid,CC(C)CCCCCC(=O)O,550.59,9,"[1, 6, 8]",3,True,CHO,alcohol
7839,4-methyloctanoic acid,CCCCC(C)CCC(=O)O,550.59,9,"[1, 6, 8]",3,True,CHO,alcohol