,Name,SMILES,Tb,C Atom,Atom,Count Unique Atom,Pass Screen,Atom2,Func. Group
5930,"tricyclo[3.2.1.03,6]octane",C1C2CC3CC1C3C2,393.92,8,"[1, 6]",2,True,CH,alkane
5931,"tricyclo[5.1.0.02,4]octane",C1CC2CC2C3C1C3,393.92,8,"[1, 6]",2,True,CH,alkane
5932,"tricyclo[5.1.0.03,5]octane",C1C2CC2CC3C1C3,393.92,8,"[1, 6]",2,True,CH,alkane
5933,"tricyclo[4.2.0.02,5]octane",C1CC2C1C3C2CC3,393.92,8,"[1, 6]",2,True,CH,alkane
5934,"tricyclo[3.2.1.02,4]octane",C1CC2CC1C3C2C3,393.92,8,"[1, 6]",2,True,CH,alkane
5935,"tricyclo[5.1.0.02,8]octane",C1CCC2C3C2C3C1,393.92,8,"[1, 6]",2,True,CH,alkane
5936,(E)-3-methylhept-2-ene,CCCC/C(=C/C)/C,394.15,8,"[1, 6]",2,True,CH,alkene
5937,"N',N'-di(propan-2-yl)ethane-1,2-diamine",CC(C)N(CCN)C(C)C,394.15,8,"[1, 6, 7]",3,True,CHN,amine
5938,3-ethylhex-2-ene,CCCC(=CC)CC,394.15,8,"[1, 6]",2,True,CH,alkene
5939,"2,3-dimethylidenebicyclo[2.2.0]hexane",C=C1C2CCC2C1=C,394.44,8,"[1, 6]",2,True,CH,alkene
5940,"1,2,3,4-tetramethylidenecyclobutane",C=C1C(=C)C(=C)C1=C,394.96,8,"[1, 6]",2,True,CH,alkene
5941,"octa-2,4,6-triene",CC=CC=CC=CC,395.12,8,"[1, 6]",2,True,CH,alkene
5942,"(Z)-3,4-dimethylhex-3-ene",CC/C(=C(/C)\CC)/C,395.15,8,"[1, 6]",2,True,CH,alkene
5943,propan-2-yl 2-propan-2-yloxyacetate,CC(C)OCC(=O)OC(C)C,395.65,8,"[1, 6, 8]",3,True,CHO,ester
5944,(Z)-3-ethylhex-2-en-4-yne,CC/C(=C/C)/C#CC,395.68,8,"[1, 6]",2,True,CH,alkene
5945,(E)-3-ethylhex-2-en-4-yne,CC/C(=C\C)/C#CC,395.68,8,"[1, 6]",2,True,CH,alkene
5946,2-methylbicyclo[2.2.1]heptane,CC1CC2CCC1C2,395.72,8,"[1, 6]",2,True,CH,alkane
5947,2-cyclopropylethylcyclopropane,C1CC1CCC2CC2,396.12,8,"[1, 6]",2,True,CH,alkane
5948,"1,1-dimethyl-2-propan-2-ylidenecyclopropane",CC(=C1CC1(C)C)C,396.14,8,"[1, 6]",2,True,CH,alkene
5949,"2,5-dimethylhexa-1,5-dien-3-yne",CC(=C)C#CC(=C)C,396.15,8,"[1, 6]",2,True,CH,alkene
5950,1-methyl-1-(1-methylcyclopropyl)cyclopropane,CC1(CC1)C2(CC2)C,396.6,8,"[1, 6]",2,True,CH,alkane
5951,"3,5-dimethylcyclohexene",CC1CC=CC(C1)C,396.68,8,"[1, 6]",2,True,CH,alkene
5952,"(2E,6E)-octa-2,6-diene",C/C=C/CC/C=C/C,397.65,8,"[1, 6]",2,True,CH,alkene
5953,2-ethenoxy-4-methylpent-1-ene,CC(C)CC(=C)OC=C,397.86,8,"[1, 6, 8]",3,True,CHO,ester
5954,"7-methylidenebicyclo[2.2.1]hepta-2,5-diene",C=C1C2C=CC1C=C2,397.87,8,"[1, 6]",2,True,CH,alkene
5955,"3,6-dimethylcyclohexene",CC1CCC(C=C1)C,398.15,8,"[1, 6]",2,True,CH,alkene
5956,"2-methoxy-2,3,3-trimethylbutane",CC(C)(C)C(C)(C)OC,398.6,8,"[1, 6, 8]",3,True,CHO,ester
5957,3-(dimethylamino)butyl acetate,CC(CCOC(=O)C)N(C)C,398.65,8,"[1, 6, 7, 8]",4,True,CHON,ester
5958,"2-methylspiro[2.4]hepta-4,6-diene",CC1CC12C=CC=C2,398.95,8,"[1, 6]",2,True,CH,alkene
5959,3-propylcyclopentene,CCCC1CCC=C1,399.05,8,"[1, 6]",2,True,CH,alkene
5960,"N,N-diethyl-2-methylprop-1-en-1-amine",CCN(CC)C=C(C)C,399.12,8,"[1, 6, 7]",3,True,CHN,alkene
5961,2-methylidenebicyclo[2.2.1]heptane,C=C1CC2CCC1C2,399.55,8,"[1, 6]",2,True,CH,alkene
5962,7-methylidenebicyclo[2.2.1]heptane,C=C1C2CCC1CC2,399.55,8,"[1, 6]",2,True,CH,alkene
5963,"N,N-diethyl-3-oxobutanamide",CCN(CC)C(=O)CC(=O)C,399.65,8,"[1, 6, 7, 8]",4,True,CHON,amide
5964,2-(1-propan-2-yloxyethoxy)propane,CC(C)OC(C)OC(C)C,399.65,8,"[1, 6, 8]",3,True,CHO,ester
5965,"3-cycloprop-2-en-1-yl-1,3-dimethylcyclopropene",CC1=CC1(C)C2C=C2,399.66,8,"[1, 6]",2,True,CH,alkene
5966,tert-butyl 2-methylpropanoate,CC(C)C(=O)OC(C)(C)C,399.85,8,"[1, 6, 8]",3,True,CHO,ester
5967,"N,2-dimethyl-N-propan-2-ylpropan-2-amine",CC(C)N(C)C(C)(C)C,400.15,8,"[1, 6, 7]",3,True,CHN,amine
5968,[(E)-2-cyclopropylethenyl]cyclopropane,C1CC1/C=C/C2CC2,400.28,8,"[1, 6]",2,True,CH,alkene
5969,1-methylbicyclo[4.1.0]heptane,CC12CCCCC1C2,400.63,8,"[1, 6]",2,True,CH,alkane
5970,1-methylbicyclo[2.2.1]heptane,CC12CCC(C1)CC2,400.63,8,"[1, 6]",2,True,CH,alkane
5971,"octa-2,6-diyne",CC#CCCC#CC,400.64,8,"[1, 6]",2,True,CH,alkyne
5972,"2,2,6-trimethyloxane",CC1CCCC(O1)(C)C,400.65,8,"[1, 6, 8]",3,True,CHO,ester
5973,3-methyl-2-propan-2-yloxybut-1-ene,CC(C)C(=C)OC(C)C,400.74,8,"[1, 6, 8]",3,True,CHO,ester
5974,1-ethyl-2-methylcyclopentene,CCC1=C(CCC1)C,400.75,8,"[1, 6]",2,True,CH,alkene
5975,"1,2-bis(ethenyl)cyclobutene",C=CC1=C(CC1)C=C,400.8,8,"[1, 6]",2,True,CH,alkene
5976,1-methyl-2-methylidenecyclohexane,CC1CCCCC1=C,401.35,8,"[1, 6]",2,True,CH,alkene
5977,2-methyl-2-propan-2-yloxybutane,CCC(C)(C)OC(C)C,401.39,8,"[1, 6, 8]",3,True,CHO,ester
5978,"3-ethoxy-2,2-dimethylbutane",CCOC(C)C(C)(C)C,401.39,8,"[1, 6, 8]",3,True,CHO,ester
5979,"2-methoxy-2,3-dimethylpentane",CCC(C)C(C)(C)OC,401.39,8,"[1, 6, 8]",3,True,CHO,ester
5980,"2-methoxy-2,4-dimethylpentane",CC(C)CC(C)(C)OC,401.39,8,"[1, 6, 8]",3,True,CHO,ester
5981,"1,5,5-trimethylcyclopenta-1,3-diene",CC1=CC=CC1(C)C,401.46,8,"[1, 6]",2,True,CH,alkene
5982,1-prop-2-enoxypentane,CCCCCOCC=C,401.74,8,"[1, 6, 8]",3,True,CHO,ester
5983,"1-methoxy-4,4-dimethylpentane",CC(C)(C)CCCOC,401.83,8,"[1, 6, 8]",3,True,CHO,ester
5984,3-methoxy-3-methylhexane,CCCC(C)(CC)OC,401.83,8,"[1, 6, 8]",3,True,CHO,ester
5985,2-methoxy-2-methylhexane,CCCCC(C)(C)OC,401.83,8,"[1, 6, 8]",3,True,CHO,ester
5986,3-ethenylcyclohexene,C=CC1CCCC=C1,401.9,8,"[1, 6]",2,True,CH,alkene
5987,"bicyclo[2.2.2]octa-2,5,7-triene",C1=CC2C=CC1C=C2,402.14,8,"[1, 6]",2,True,CH,alkene
5988,"1,5-dimethylcyclohexa-1,3-diene",CC1CC(=CC=C1)C,402.15,8,"[1, 6]",2,True,CH,alkene
5989,[(E)-pent-2-en-2-yl]cyclopropane,CC/C=C(\C)/C1CC1,402.445,8,"[1, 6]",2,True,CH,alkene
5990,"bicyclo[2.2.2]octa-2,5-diene",C1CC2C=CC1C=C2,402.98,8,"[1, 6]",2,True,CH,alkene
5991,"bicyclo[5.1.0]octa-2,5-diene",C1C=CC2CC2C=C1,402.98,8,"[1, 6]",2,True,CH,alkene
5992,"bicyclo[4.2.0]octa-2,4-diene",C1CC2C1C=CC=C2,402.98,8,"[1, 6]",2,True,CH,alkene
5993,"bicyclo[3.2.1]octa-2,6-diene",C1C=CC2CC1C=C2,402.98,8,"[1, 6]",2,True,CH,alkene
5994,"1,3a,6,6a-tetrahydropentalene",C1C=CC2C1CC=C2,402.98,8,"[1, 6]",2,True,CH,alkene
5995,"bicyclo[4.1.1]octa-2,4-diene",C1C2CC1C=CC=C2,402.98,8,"[1, 6]",2,True,CH,alkene
5996,"1,6-dimethylcyclohexene",CC1CCCC=C1C,403.15,8,"[1, 6]",2,True,CH,alkene
5997,1-prop-2-enylcyclopentene,C=CCC1=CCCC1,403.41,8,"[1, 6]",2,True,CH,alkene
5998,1-butan-2-yloxybutane,CCCCOC(C)CC,403.65,8,"[1, 6, 8]",3,True,CHO,ester
5999,"(3E)-octa-1,3-diene",CCCC/C=C/C=C,403.65,8,"[1, 6]",2,True,CH,alkene
6000,"tricyclo[3.2.1.01,5]octane",C1CC23CCC2(C1)C3,403.74,8,"[1, 6]",2,True,CH,alkane
6001,dispiro[2.0.24.23]octane,C1CC12CCC23CC3,403.74,8,"[1, 6]",2,True,CH,alkane
6002,dispiro[2.1.25.13]octane,C1CC12CC3(C2)CC3,403.74,8,"[1, 6]",2,True,CH,alkane
6003,bicyclo[3.2.1]oct-2-ene,C1CC2CC1CC=C2,403.82,8,"[1, 6]",2,True,CH,alkene
6004,bicyclo[4.2.0]oct-7-ene,C1CCC2C=CC2C1,403.82,8,"[1, 6]",2,True,CH,alkene
6005,"1,2,3,3a,4,6a-hexahydropentalene",C1CC2CC=CC2C1,403.82,8,"[1, 6]",2,True,CH,alkene
6006,bicyclo[4.1.1]oct-3-ene,C1C=CCC2CC1C2,403.82,8,"[1, 6]",2,True,CH,alkene
6007,"7-methylcyclohepta-1,3,5-triene",CC1C=CC=CC=C1,403.94,8,"[1, 6]",2,True,CH,alkene
6008,"N,N-diethylbut-2-yn-1-amine",CCN(CC)CC#CC,404.08,8,"[1, 6, 7]",3,True,CHN,alkyne
6009,"1-N,1-N,2-N,2-N,2-pentamethylpropane-1,2-diamine",CC(C)(CN(C)C)N(C)C,404.29,8,"[1, 6, 7]",3,True,CHN,amine
6010,"4,5-dimethylidenecyclohexene",C=C1CC=CCC1=C,404.34,8,"[1, 6]",2,True,CH,alkene
6011,2-methoxyheptane,CCCCCC(C)OC,404.62,8,"[1, 6, 8]",3,True,CHO,ester
6012,bicyclo[3.2.1]octane,C1CC2CCC(C1)C2,404.66,8,"[1, 6]",2,True,CH,alkane
6013,bicyclo[4.1.1]octane,C1CCC2CC(C1)C2,404.66,8,"[1, 6]",2,True,CH,alkane
6014,"1,4-dimethylidenecyclohexane",C=C1CCC(=C)CC1,405.18,8,"[1, 6]",2,True,CH,alkene
6015,"1,3-dimethylidenecyclohexane",C=C1CCCC(=C)C1,405.18,8,"[1, 6]",2,True,CH,alkene
6016,(E)-2-ethenoxy-4-methylpent-2-ene,CC(C)/C=C(\C)/OC=C,405.34,8,"[1, 6, 8]",3,True,CHO,ester
6017,5-methylcycloheptene,CC1CCC=CCC1,405.62,8,"[1, 6]",2,True,CH,alkene
6018,"1,2,6-trimethylpiperidine",CC1CCCC(N1C)C,405.69,8,"[1, 6, 7]",3,True,CHN,amine
6019,1-tert-butylpyrrole,CC(C)(C)N1C=CC=C1,405.85,8,"[1, 6, 7]",3,True,CHN,aromatic
6020,"(E)-2-methoxy-4,4-dimethylpent-2-ene",C/C(=C\C(C)(C)C)/OC,405.87,8,"[1, 6, 8]",3,True,CHO,ester
6021,"(Z)-1-ethoxy-3,3-dimethylbut-1-ene",CCO/C=C\C(C)(C)C,405.99,8,"[1, 6, 8]",3,True,CHO,ester
6022,4-ethylcyclohexene,CCC1CCC=CC1,406.15,8,"[1, 6]",2,True,CH,alkene
6023,"1,4-dimethylcyclohexene",CC1CCC(=CC1)C,406.33,8,"[1, 6]",2,True,CH,alkene
6024,cyclobutylcyclobutane,C1CC(C1)C2CCC2,406.65,8,"[1, 6]",2,True,CH,alkane
6025,"N,N,2-trimethylpentan-1-amine",CCCC(C)CN(C)C,407.15,8,"[1, 6, 7]",3,True,CHN,amine
6026,"penta-1,3-diynylcyclopropane",CC#CC#CC1CC1,407.38,8,"[1, 6]",2,True,CH,alkyne
6027,"N,N'-diethyl-N,N'-dimethylethane-1,2-diamine",CCN(C)CCN(C)CC,407.52,8,"[1, 6, 7]",3,True,CHN,amine
6028,1-ethenylcyclohexene,C=CC1=CCCCC1,407.68,8,"[1, 6]",2,True,CH,alkene
6029,"spiro[3.4]octa-5,7-diene",C1CC2(C1)C=CC=C2,407.89,8,"[1, 6]",2,True,CH,alkene
6030,"spiro[2.5]octa-5,7-diene",C1CC12CC=CC=C2,407.89,8,"[1, 6]",2,True,CH,alkene
6031,2-(hydroxymethyl)-6-methoxyphenol,COC1=CC=CC(=C1O)CO,408.15,8,"[1, 6, 8]",3,True,CHO,ester
6032,"N,N-dimethylhexanamide",CCCCCC(=O)N(C)C,408.15,8,"[1, 6, 7, 8]",4,True,CHON,amide
6033,3-propan-2-ylidenecyclopentene,CC(=C1CCC=C1)C,408.27,8,"[1, 6]",2,True,CH,alkene
6034,7-methylidenebicyclo[3.2.0]hept-2-ene,C=C1CC2C1C=CC2,408.36,8,"[1, 6]",2,True,CH,alkene
6035,"6-methylspiro[2.4]hepta-4,6-diene",CC1=CC2(CC2)C=C1,408.6,8,"[1, 6]",2,True,CH,alkene
6036,"7-methylspiro[2.4]hepta-4,6-diene",CC1=CC=CC12CC2,408.6,8,"[1, 6]",2,True,CH,alkene
6037,"1,1-diethoxy-2-methylpropane",CCOC(C(C)C)OCC,408.65,8,"[1, 6, 8]",3,True,CHO,ester
6038,"3-tert-butyl-2,2-dimethyloxirane",CC1(C(O1)C(C)(C)C)C,408.67,8,"[1, 6, 8]",3,True,CHO,ester
6039,spiro[2.5]oct-7-ene,C1CC=CC2(C1)CC2,408.73,8,"[1, 6]",2,True,CH,alkene
6040,spiro[3.4]oct-7-ene,C1CC2(C1)CCC=C2,408.73,8,"[1, 6]",2,True,CH,alkene
6041,(Z)-1-ethoxy-4-methylpent-1-ene,CCO/C=C\CC(C)C,408.78,8,"[1, 6, 8]",3,True,CHO,ester
6042,3-methoxy-2-methylhex-2-ene,CCCC(=C(C)C)OC,408.98,8,"[1, 6, 8]",3,True,CHO,ester
6043,1-methylcycloheptene,CC1=CCCCCC1,409.15,8,"[1, 6]",2,True,CH,alkene
6044,2-methyl-5-propan-2-ylfuran,CC1=CC=C(O1)C(C)C,409.15,8,"[1, 6, 8]",3,True,CHO,aromatic
6045,propan-2-ylidenecyclopentane,CC(=C1CCCC1)C,409.20792,8,"[1, 6]",2,True,CH,alkene
6046,"pentacyclo[4.2.0.02,5.03,8.04,7]octa-1,3-diene",C12C3C4C1=C5C2C3=C45,409.36,8,"[1, 6]",2,True,CH,alkene
6047,tert-butyl butanoate,CCCC(=O)OC(C)(C)C,409.4,8,"[1, 6, 8]",3,True,CHO,ester
6048,spiro[3.4]octane,C1CCC2(C1)CCC2,409.57,8,"[1, 6]",2,True,CH,alkane
6049,"octa-2,4,6-triyne",CC#CC#CC#CC,409.64,8,"[1, 6]",2,True,CH,alkyne
6050,"1,4,4-trimethyl-2,3-dihydropyridine",CC1(CCN(C=C1)C)C,409.76,8,"[1, 6, 7]",3,True,CHN,alkene
6051,"1-ethylcyclohexa-1,4-diene",CCC1=CCC=CC1,410.16,8,"[1, 6]",2,True,CH,alkene
6052,1-(2-methylpropyl)pyrrolidine,CC(C)CN1CCCC1,410.32,8,"[1, 6, 7]",3,True,CHN,amine
6053,1-[(E)-pent-2-en-3-yl]azetidine,CC/C(=C\C)/N1CCC1,410.53,8,"[1, 6, 7]",3,True,CHN,alkene
6054,"1,4,4-trimethylpiperidine",CC1(CCN(CC1)C)C,410.6,8,"[1, 6, 7]",3,True,CHN,amine
6055,2-butylfuran,CCCCC1=CC=CO1,410.65,8,"[1, 6, 8]",3,True,CHO,aromatic
6056,bicyclo[2.2.2]oct-2-ene,C1CC2CCC1C=C2,410.9,8,"[1, 6]",2,True,CH,alkene
6057,bicyclo[4.2.0]oct-2-ene,C1CC2CCC2C=C1,411.15,8,"[1, 6]",2,True,CH,alkene
6058,"2-methyl-2-azabicyclo[3.2.1]octa-3,6-diene",CN1C=CC2CC1C=C2,411.15,8,"[1, 6, 7]",3,True,CHN,alkene
6059,2-methyl-2-azabicyclo[2.2.2]oct-5-ene,CN1CC2CCC1C=C2,411.99,8,"[1, 6, 7]",3,True,CHN,alkene
6060,2-methyl-2-azabicyclo[3.2.1]oct-3-ene,CN1C=CC2CCC1C2,411.99,8,"[1, 6, 7]",3,True,CHN,alkene
6061,2-methyl-2-azabicyclo[3.2.1]oct-6-ene,CN1CCC2CC1C=C2,411.99,8,"[1, 6, 7]",3,True,CHN,alkene
6062,"2,4,4,6-tetramethyl-1,3-dioxane",CC1CC(OC(O1)C)(C)C,412.65,8,"[1, 6, 8]",3,True,CHO,ester
6063,(3E)-3-ethylidenecyclohexene,C/C=C/1\CCCC=C1,412.66,8,"[1, 6]",2,True,CH,alkene
6064,3-methyl-1-azabicyclo[2.2.2]octane,CC1CN2CCC1CC2,412.83,8,"[1, 6, 7]",3,True,CHN,amine
6065,2-methyl-1-azabicyclo[2.2.2]octane,CC1CC2CCN1CC2,412.83,8,"[1, 6, 7]",3,True,CHN,amine
6066,2-methyl-2-azabicyclo[2.2.2]octane,CN1CC2CCC1CC2,412.83,8,"[1, 6, 7]",3,True,CHN,amine
6067,"(1Z,3Z,6Z)-cycloocta-1,3,6-triene",C/1/C=C\C=C/C/C=C1,412.88,8,"[1, 6]",2,True,CH,alkene
6068,(E)-3-methyl-1-[(E)-prop-1-enoxy]but-1-ene,C/C=C/O/C=C/C(C)C,412.94,8,"[1, 6, 8]",3,True,CHO,ester
6069,2-hex-5-enyloxirane,C=CCCCCC1CO1,413.01,8,"[1, 6, 8]",3,True,CHO,ester
6070,"cycloocta-1,3,5-trien-7-yne",C1=CC=CC#CC=C1,413.34,8,"[1, 6]",2,True,CH,alkene
6071,"(1Z,5Z)-cycloocta-1,5-dien-3-yne",C1/C=C\C#C/C=C\C1,414.18,8,"[1, 6]",2,True,CH,alkene
6072,"(1Z,3Z)-cycloocta-1,3-dien-6-yne",C\1C#CC/C=C\C=C1,414.18,8,"[1, 6]",2,True,CH,alkene
6073,ethynoxycyclohexane,C#COC1CCCCC1,414.73,8,"[1, 6, 8]",3,True,CHO,ester
6074,1-(2-methylprop-1-enyl)pyrrolidine,CC(=CN1CCCC1)C,414.8,8,"[1, 6, 7]",3,True,CHN,alkene
6075,1-[(E)-but-1-enyl]pyrrolidine,CC/C=C/N1CCCC1,414.92,8,"[1, 6, 7]",3,True,CHN,alkene
6076,(1Z)-cyclooct-1-en-5-yne,C/1CC#CCC/C=C1,415.02,8,"[1, 6]",2,True,CH,alkene
6077,(1Z)-cyclooct-1-en-3-yne,C1CCC#C/C=C\C1,415.02,8,"[1, 6]",2,True,CH,alkene
6078,"1,5-dimethylcyclohexa-1,4-diene",CC1=CCC=C(C1)C,415.14,8,"[1, 6]",2,True,CH,alkene
6079,"1,2-dimethylcyclohexa-1,4-diene",CC1=C(CC=CC1)C,415.14,8,"[1, 6]",2,True,CH,alkene
6080,2-(2-propan-2-yloxyethoxy)propane,CC(C)OCCOC(C)C,415.15,8,"[1, 6, 8]",3,True,CHO,ester
6081,2-methyl-2-propan-2-yloxolane,CC(C)C1(CCCO1)C,415.65,8,"[1, 6, 8]",3,True,CHO,ester
6082,"1,2,3-trimethylcyclopenta-1,3-diene",CC1=C(C(=CC1)C)C,415.85,8,"[1, 6]",2,True,CH,alkene
6083,"1,1-diethoxybutane",CCCC(OCC)OCC,416.15,8,"[1, 6, 8]",3,True,CHO,ester
6084,cyclooctene,C1CCC/C=C\CC1,416.15,8,"[1, 6]",2,True,CH,alkene
6085,"cycloocta-1,5-diyne",C1CC#CCCC#C1,416.32,8,"[1, 6]",2,True,CH,alkyne
6086,1-but-3-en-1-ynylpyrrolidine,C=CC#CN1CCCC1,416.44,8,"[1, 6, 7]",3,True,CHN,alkene
6087,"N,N,N',N'-tetramethylbut-2-yne-1,4-diamine",CN(C)CC#CCN(C)C,416.52,8,"[1, 6, 7]",3,True,CHN,alkyne
6088,4-methyl-2-propylfuran,CCCC1=CC(=CO1)C,416.65,8,"[1, 6, 8]",3,True,CHO,aromatic
6089,"1,2-dimethyl-4-methylidenepiperidine",CC1CC(=C)CCN1C,417.15,8,"[1, 6, 7]",3,True,CHN,alkene
6090,1-cyclohexyl-N-methylmethanamine,CNCC1CCCCC1,417.15,8,"[1, 6, 7]",3,True,CHN,amine
6091,7-methoxybicyclo[2.2.1]hept-2-ene,COC1C2CCC1C=C2,417.3,8,"[1, 6, 8]",3,True,CHO,ester
6092,5-methoxybicyclo[2.2.1]hept-2-ene,COC1CC2CC1C=C2,417.3,8,"[1, 6, 8]",3,True,CHO,ester
6093,"2,2,5,5-tetramethyl-1,3-dioxane",CC1(COC(OC1)(C)C)C,417.65,8,"[1, 6, 8]",3,True,CHO,ester
6094,4-methyl-1-azabicyclo[2.2.2]octane,CC12CCN(CC1)CC2,417.74,8,"[1, 6, 7]",3,True,CHN,amine
6095,2-methoxybicyclo[2.2.1]heptane,COC1CC2CCC1C2,418.14,8,"[1, 6, 8]",3,True,CHO,ester
6096,7-methoxybicyclo[2.2.1]heptane,COC1C2CCC1CC2,418.14,8,"[1, 6, 8]",3,True,CHO,ester
6097,"octane-1,8-diol",C(CCCCO)CCCO,418.15,8,"[1, 6, 8]",3,True,CHO,alcohol
6098,ethyl 3-cyano-4-oxopyrrolidine-1-carboxylate,CCOC(=O)N1CC(C(=O)C1)C#N,418.15,8,"[1, 6, 7, 8]",4,True,CHON,ester
6099,1-ethynylcyclohexene,C#CC1=CCCCC1,418.65,8,"[1, 6]",2,True,CH,alkene
6100,1-ethyl-3-methylpiperidine,CCN1CCCC(C1)C,419.15,8,"[1, 6, 7]",3,True,CHN,amine
6101,1-ethyl-2-methylpiperidine,CCN1CCCCC1C,419.15,8,"[1, 6, 7]",3,True,CHN,amine
6102,bicyclo[2.2.1]hept-5-ene-2-carboxylic acid,C1C2CC(C1C=C2)C(=O)O,419.15,8,"[1, 6, 8]",3,True,CHO,alkene
6103,1-[(E)-prop-1-enyl]piperidine,C/C=C/N1CCCCC1,419.19,8,"[1, 6, 7]",3,True,CHN,alkene
6104,methyl 2-ethyl-3-methylbutanoate,CCC(C(C)C)C(=O)OC,419.65,8,"[1, 6, 8]",3,True,CHO,ester
6105,"1-cyclopenta-2,4-dien-1-ylidene-N,N-dimethylmethanamine",CN(C)C=C1C=CC=C1,419.99,8,"[1, 6, 7]",3,True,CHN,alkene
6106,"N,N-dimethylhexan-1-amine",CCCCCCN(C)C,420.15,8,"[1, 6, 7]",3,True,CHN,amine
6107,butan-2-yl 2-methylprop-2-enoate,CCC(C)OC(=O)C(=C)C,420.15,8,"[1, 6, 8]",3,True,CHO,ester
6108,"2,3-dimethyl-2,3-diazabicyclo[2.2.2]oct-5-ene",CN1C2CCC(N1C)C=C2,420.16,8,"[1, 6, 7]",3,True,CHN,alkene
6109,bicyclo[2.2.2]octane,C1CC2CCC1CC2,420.44,8,"[1, 6]",2,True,CH,alkane
6110,"2,3-diethoxybuta-1,3-diene",CCOC(=C)C(=C)OCC,420.6,8,"[1, 6, 8]",3,True,CHO,ester
6111,ethenoxycyclohexane,C=COC1CCCCC1,420.65,8,"[1, 6, 8]",3,True,CHO,ester
6112,"(E)-1,1-diethoxybut-2-ene",CCOC(/C=C/C)OCC,420.65,8,"[1, 6, 8]",3,True,CHO,ester
6113,"(2E,4E,6E)-octa-2,4,6-triene",C/C=C/C=C/C=C/C,420.65,8,"[1, 6]",2,True,CH,alkene
6114,"1,4-bis(ethenoxy)butane",C=COCCCCOC=C,420.84,8,"[1, 6, 8]",3,True,CHO,ester
6115,3-(2-prop-2-enoxyethoxy)prop-1-ene,C=CCOCCOCC=C,420.84,8,"[1, 6, 8]",3,True,CHO,ester
6116,"2,2-dimethoxy-3,3-dimethylbutane",CC(C)(C)C(C)(OC)OC,421.02,8,"[1, 6, 8]",3,True,CHO,ester
6117,"1-cyclopropyl-2,2-dimethylpropan-1-one",CC(C)(C)C(=O)C1CC1,421.15,8,"[1, 6, 8]",3,True,CHO,ketone
6118,"2-tert-butyl-1,3-dioxane",CC(C)(C)C1OCCCO1,421.15,8,"[1, 6, 8]",3,True,CHO,ester
6119,"1,2-dihydropentalene",C1CC2=CC=CC2=C1,421.44,8,"[1, 6]",2,True,CH,alkene
6120,"1,5-dihydropentalene",C1C=C2CC=CC2=C1,421.44,8,"[1, 6]",2,True,CH,alkene
6121,"1,4-dihydropentalene",C1C=CC2=C1C=CC2,421.44,8,"[1, 6]",2,True,CH,alkene
6122,tert-butyl imidazole-1-carboxylate,CC(C)(C)OC(=O)N1C=CN=C1,421.65,8,"[1, 6, 7, 8]",4,True,CHON,ester
6123,"1,2,3,5,6,7,8,8a-octahydroindolizine",C1CCN2CCCC2C1,421.77,8,"[1, 6, 7]",3,True,CHN,amine
6124,2-methylpentan-3-yl acetate,CCC(C(C)C)OC(=O)C,422.15,8,"[1, 6, 8]",3,True,CHO,ester
6125,"bicyclo[4.2.0]octa-1,5-diene",C1CC=C2CCC2=C1,422.28,8,"[1, 6]",2,True,CH,alkene
6126,1-propan-2-ylpiperidine,CC(C)N1CCCCC1,422.65,8,"[1, 6, 7]",3,True,CHN,amine
6127,cyclobutylidenecyclobutane,C1CC(=C2CCC2)C1,423.12,8,"[1, 6]",2,True,CH,alkene
6128,bicyclo[4.2.0]oct-1(6)-ene,C1CCC2=C(C1)CC2,423.12,8,"[1, 6]",2,True,CH,alkene
6129,1-methoxyheptane,CCCCCCCOC,423.15,8,"[1, 6, 8]",3,True,CHO,ester
6130,"bicyclo[4.2.0]octa-1,3,5-triene",C1CC2=CC=CC=C21,423.15,8,"[1, 6]",2,True,CH,aromatic
6131,"dimethyl furan-3,4-dicarboxylate",COC(=O)C1=COC=C1C(=O)OC,423.15,8,"[1, 6, 8]",3,True,CHO,ester
6132,2-(2-piperazin-1-ylethoxy)ethanol,C1CN(CCN1)CCOCCO,423.15,8,"[1, 6, 7, 8]",4,True,CHON,ester
6133,"N,N-dimethylcyclohexen-1-amine",CN(C)C1=CCCCC1,423.44,8,"[1, 6, 7]",3,True,CHN,alkene
6134,1-methylazocane,CN1CCCCCCC1,423.57,8,"[1, 6, 7]",3,True,CHN,amine
6135,2-(2-methoxyethoxy)-3-methylbut-1-ene,CC(C)C(=C)OCCOC,423.6,8,"[1, 6, 8]",3,True,CHO,ester
6136,"4,4-diethoxybut-1-ene",CCOC(CC=C)OCC,423.72,8,"[1, 6, 8]",3,True,CHO,ester
6137,1-methoxy-3-methylidenecyclohexane,COC1CCCC(=C)C1,423.77,8,"[1, 6, 8]",3,True,CHO,ester
6138,"2,2-dimethoxy-4-methylpentane",CC(C)CC(C)(OC)OC,423.81,8,"[1, 6, 8]",3,True,CHO,ester
6139,"2,2-dimethoxy-3-methylpentane",CCC(C)C(C)(OC)OC,423.81,8,"[1, 6, 8]",3,True,CHO,ester
6140,"1,1-dimethoxy-3,3-dimethylbutane",CC(C)(C)CC(OC)OC,423.81,8,"[1, 6, 8]",3,True,CHO,ester
6141,"2,4-dimethylhexan-2-ol",CCC(C)CC(C)(C)O,423.85,8,"[1, 6, 8]",3,True,CHO,alcohol
6142,"ethyl 2,3-dimethylbut-3-enoate",CCOC(=O)C(C)C(=C)C,424.15,8,"[1, 6, 8]",3,True,CHO,ester
6143,"3,4-dimethylhexan-3-ol",CCC(C)C(C)(CC)O,424.15,8,"[1, 6, 8]",3,True,CHO,alcohol
6144,"4,4-dimethylhexan-3-one",CCC(=O)C(C)(C)CC,424.15,8,"[1, 6, 8]",3,True,CHO,ketone
6145,1-(2-ethenoxyethoxy)butane,CCCCOCCOC=C,424.16,8,"[1, 6, 8]",3,True,CHO,ester
6146,methoxymethylcyclohexane,COCC1CCCCC1,424.61,8,"[1, 6, 8]",3,True,CHO,ester
6147,butan-2-yl butanoate,CCCC(=O)OC(C)CC,424.65,8,"[1, 6, 8]",3,True,CHO,ester
6148,"5,6-dimethylidene-7-oxabicyclo[2.2.1]hept-2-ene",C=C1C2C=CC(C1=C)O2,424.82,8,"[1, 6, 8]",3,True,CHO,ester
6149,1-prop-2-enylpiperidine,C=CCN1CCCCC1,425.15,8,"[1, 6, 7]",3,True,CHN,alkene
6150,"2,2,5-trimethylcyclopentan-1-one",CC1CCC(C1=O)(C)C,425.15,8,"[1, 6, 8]",3,True,CHO,ketone
6151,"1,3-dimethyl-2-propan-2-ylideneimidazolidine",CC(=C1N(CCN1C)C)C,425.45,8,"[1, 6, 7]",3,True,CHN,alkene
6152,2-methylprop-2-enyl 2-methylpropanoate,CC(C)C(=O)OCC(=C)C,425.65,8,"[1, 6, 8]",3,True,CHO,ester
6153,"2,3-dimethylidene-7-oxabicyclo[2.2.1]heptane",C=C1C2CCC(C1=C)O2,425.66,8,"[1, 6, 8]",3,True,CHO,ester
6154,2-methylpentan-2-yl acetate,CCCC(C)(C)OC(=O)C,426.15,8,"[1, 6, 8]",3,True,CHO,ester
6155,"5,5-dimethylhexan-3-ol",CCC(CC(C)(C)C)O,426.15,8,"[1, 6, 8]",3,True,CHO,alcohol