,Name,SMILES,Tb,C Atom,Atom,Count Unique Atom,Pass Screen,Atom2,Func. Group
8026,2-(2-methylpropyl)phenol,CC(C)CC1=CC=CC=C1O,359.15,10,"[1, 6, 8]",3,True,CHO,aromatic
8027,"2-[(E)-2-(3,3-dimethyloxiran-2-yl)ethenyl]-2,3-dimethyloxirane",CC1C(O1)(C)/C=C/C2C(O2)(C)C,359.4,10,"[1, 6, 8]",3,True,CHO,ester
8028,(E)-2-methyl-3-phenylprop-2-en-1-ol,C/C(=C\C1=CC=CC=C1)/CO,359.65,10,"[1, 6, 8]",3,True,CHO,alkene
8029,"2-(4-methylphenyl)-1,3-dioxolane",CC1=CC=C(C=C1)C2OCCO2,361.15,10,"[1, 6, 8]",3,True,CHO,ester
8030,2-butoxyethyl 2-methylprop-2-enoate,CCCCOCCOC(=O)C(=C)C,363.15,10,"[1, 6, 8]",3,True,CHO,ester
8031,2-butylcyclohexan-1-one,CCCCC1CCCCC1=O,363.65,10,"[1, 6, 8]",3,True,CHO,ketone
8032,"4-ethenyl-N,N-dimethylaniline",CN(C)C1=CC=C(C=C1)C=C,363.65,10,"[1, 6, 7]",3,True,CHN,alkene
8033,"4,4-diethoxy-N,N-dimethylbutan-1-amine",CCOC(CCCN(C)C)OCC,365.65,10,"[1, 6, 7, 8]",4,True,CHON,ester
8034,"5,5-diethyl-1,3-dimethyl-1,3-diazinane-2,4,6-trione",CCC1(C(=O)N(C(=O)N(C1=O)C)C)CC,366.15,10,"[1, 6, 7, 8]",4,True,CHON,amide
8035,ethenyl octanoate,CCCCCCCC(=O)OC=C,367.15,10,"[1, 6, 8]",3,True,CHO,ester
8036,"(3E)-3,7-dimethylocta-3,6-dienal",CC(=CC/C=C(\C)/CC=O)C,369.15,10,"[1, 6, 8]",3,True,CHO,alkene
8037,"2,7-dimethyloctan-4-ol",CC(C)CCC(CC(C)C)O,369.15,10,"[1, 6, 8]",3,True,CHO,alcohol
8038,3-propan-2-ylbenzaldehyde,CC(C)C1=CC=CC(=C1)C=O,369.15,10,"[1, 6, 8]",3,True,CHO,aromatic
8039,4-phenylbutanenitrile,C1=CC=C(C=C1)CCCC#N,371.15,10,"[1, 6, 7]",3,True,CHN,aromatic
8040,"4,7,7-trimethylbicyclo[4.1.0]heptan-3-ol",CC1CC2C(C2(C)C)CC1O,371.15,10,"[1, 6, 8]",3,True,CHO,alcohol
8041,1-(1-butoxyethoxy)butane,CCCCOC(C)OCCCC,371.85,10,"[1, 6, 8]",3,True,CHO,ester
8042,"(3E,5E)-3,7-dimethylocta-1,3,5-triene",CC(C)/C=C/C=C(\C)/C=C,373.15,10,"[1, 6]",2,True,CH,alkene
8043,5-methyl-2-prop-1-en-2-ylcyclohexan-1-one,CC1CCC(C(=O)C1)C(=C)C,373.65,10,"[1, 6, 8]",3,True,CHO,alkene
8044,"diethyl 2-methylpyrazole-3,4-dicarboxylate",CCOC(=O)C1=C(N(N=C1)C)C(=O)OCC,375.65,10,"[1, 6, 7, 8]",4,True,CHON,ester
8045,1-pyridin-4-ylpentan-1-one,CCCCC(=O)C1=CC=NC=C1,376.65,10,"[1, 6, 7, 8]",4,True,CHON,aromatic
8046,"5-ethyl-3-phenyl-1,2,4-oxadiazole",CCC1=NC(=NO1)C2=CC=CC=C2,377.15,10,"[1, 6, 7, 8]",4,True,CHON,aromatic
8047,bis(prop-2-enyl) butanedioate,C=CCOC(=O)CCC(=O)OCC=C,378.15,10,"[1, 6, 8]",3,True,CHO,ester
8048,3-cyclohexylpropyl formate,C1CCC(CC1)CCCOC=O,380.65,10,"[1, 6, 8]",3,True,CHO,ester
8049,1-(2-hydroxyphenyl)-2-methylpropan-1-one,CC(C)C(=O)C1=CC=CC=C1O,383.15,10,"[1, 6, 8]",3,True,CHO,ketone
8050,(Z)-3-(2-methoxyphenyl)prop-2-enoic acid,COC1=CC=CC=C1/C=C\C(=O)O,384.15,10,"[1, 6, 8]",3,True,CHO,carboxylic_acid
8051,4-cyclohexylmorpholine,C1CCC(CC1)N2CCOCC2,384.65,10,"[1, 6, 7, 8]",4,True,CHON,ester
8052,"(NZ)-N-[1-(7-bicyclo[4.2.0]octa-1,3,5-trienyl)ethylidene]hydroxylamine",C/C(=N/O)/C1CC2=CC=CC=C12,385.15,10,"[1, 6, 7, 8]",4,True,CHON,aromatic
8053,"(4E,6E)-2,6-dimethylocta-2,4,6-triene",C/C=C(\C)/C=C/C=C(C)C,385.65,10,"[1, 6]",2,True,CH,alkene
8054,N-ethenyl-N-phenylacetamide,CC(=O)N(C=C)C1=CC=CC=C1,385.65,10,"[1, 6, 7, 8]",4,True,CHON,amide
8055,1-methyl-4-prop-1-en-2-yl-7-oxabicyclo[4.1.0]heptane,CC(=C)C1CCC2(C(C1)O2)C,386.65,10,"[1, 6, 8]",3,True,CHO,ester
8056,"3-(2,3,4,5-tetrahydropyridin-6-yl)pyridine",C1CCN=C(C1)C2=CN=CC=C2,388.15,10,"[1, 6, 7]",3,True,CHN,aromatic
8057,1-(diaminomethylidene)-2-(2-phenylethyl)guanidine,C1=CC=C(C=C1)CCN=C(N)N=C(N)N,388.15,10,"[1, 6, 7]",3,True,CHN,aromatic
8058,"1,3-benzodioxol-5-yl(oxiran-2-yl)methanol",C1C(O1)C(C2=CC3=C(C=C2)OCO3)O,388.15,10,"[1, 6, 8]",3,True,CHO,ester
8059,2-(3-azabicyclo[3.2.2]nonan-3-yl)ethanamine,C1CC2CCC1CN(C2)CCN,390.15,10,"[1, 6, 7]",3,True,CHN,amine
8060,2-methyl-4-propylphenol,CCCC1=CC(=C(C=C1)O)C,390.15,10,"[1, 6, 8]",3,True,CHO,aromatic
8061,2-(oxiran-2-ylmethyl)-3-[3-(oxiran-2-yl)propyl]oxirane,C1C(O1)CCCC2C(O2)CC3CO3,390.15,10,"[1, 6, 8]",3,True,CHO,ester
8062,2-(2-ethoxyphenoxy)acetonitrile,CCOC1=CC=CC=C1OCC#N,390.65,10,"[1, 6, 7, 8]",4,True,CHON,ester
8063,"4-methyl-2-phenyl-1,3-dioxolane",CC1COC(O1)C2=CC=CC=C2,391.15,10,"[1, 6, 8]",3,True,CHO,ester
8064,4-(cyclohexen-1-yl)morpholine,C1CCC(=CC1)N2CCOCC2,392.65,10,"[1, 6, 7, 8]",4,True,CHON,ester
8065,"N,N-diethylpiperidine-3-carboxamide",CCN(CC)C(=O)C1CCCNC1,392.65,10,"[1, 6, 7, 8]",4,True,CHON,amide
8066,"2,2-dimethyl-3H-1-benzofuran-7-ol",CC1(CC2=C(O1)C(=CC=C2)O)C,393.65,10,"[1, 6, 8]",3,True,CHO,ester
8067,"6-ethyl-2,3-dihydro-1,4-benzodioxin-5-ol",CCC1=C(C2=C(C=C1)OCCO2)O,393.65,10,"[1, 6, 8]",3,True,CHO,ester
8068,"(3,5-dimethylphenyl) N-methylcarbamate",CC1=CC(=CC(=C1)OC(=O)NC)C,394.15,10,"[1, 6, 7, 8]",4,True,CHON,ester
8069,4-[butyl(nitroso)amino]butyl acetate,CCCCN(CCCCOC(=O)C)N=O,395.15,10,"[1, 6, 7, 8]",4,True,CHON,ester
8070,quinoline-4-carbaldehyde,C1=CC=C2C(=C1)C(=CC=N2)C=O,395.65,10,"[1, 6, 7, 8]",4,True,CHON,aromatic
8071,1-(dimethoxymethyl)-4-methoxybenzene,COC1=CC=C(C=C1)C(OC)OC,396.15,10,"[1, 6, 8]",3,True,CHO,ester
8072,"1-(2-methyl-1,4,5,6-tetrahydrocyclopenta[b]pyrrol-3-yl)ethanone",CC1=C(C2=C(N1)CCC2)C(=O)C,396.15,10,"[1, 6, 7, 8]",4,True,CHON,aromatic
8073,"N-(3,7-dimethyloct-6-enylidene)hydroxylamine",CC(CCC=C(C)C)CC=NO,397.65,10,"[1, 6, 7, 8]",4,True,CHON,alkene
8074,"(E)-2,2,5,5-tetramethylhex-3-ene",CC(C)(C)/C=C/C(C)(C)C,398.25,10,"[1, 6]",2,True,CH,alkene
8075,"1-(1,3-benzodioxol-5-yl)propan-1-one",CCC(=O)C1=CC2=C(C=C1)OCO2,401.15,10,"[1, 6, 8]",3,True,CHO,ester
8076,4-propoxybenzaldehyde,CCCOC1=CC=C(C=C1)C=O,402.15,10,"[1, 6, 8]",3,True,CHO,ester
8077,"3,7-dimethyloctanal",CC(C)CCCC(C)CC=O,403.15,10,"[1, 6, 8]",3,True,CHO,aldehyde
8078,2-prop-2-enoxybenzaldehyde,C=CCOC1=CC=CC=C1C=O,403.15,10,"[1, 6, 8]",3,True,CHO,ester
8079,"2-(2,2,3-trimethylcyclopent-3-en-1-yl)ethanol",CC1=CCC(C1(C)C)CCO,405.15,10,"[1, 6, 8]",3,True,CHO,alkene
8080,(E)-3-(4-methoxyphenyl)prop-2-enenitrile,COC1=CC=C(C=C1)/C=C/C#N,406.65,10,"[1, 6, 7, 8]",4,True,CHON,ester
8081,"deca-1,9-diyne",C#CCCCCCCC#C,408.64,10,"[1, 6]",2,True,CH,alkyne
8082,"1-(2,6-dimethoxyphenyl)ethanone",CC(=O)C1=C(C=CC=C1OC)OC,408.65,10,"[1, 6, 8]",3,True,CHO,ester
8083,methyl 3-cyclohexylpropanoate,COC(=O)CCC1CCCCC1,408.9,10,"[1, 6, 8]",3,True,CHO,ester
8084,"(2,4,6-trimethylphenyl)methanol",CC1=CC(=C(C(=C1)C)CO)C,413.15,10,"[1, 6, 8]",3,True,CHO,aromatic
8085,3-(2-bicyclo[2.2.1]hept-5-enyl)prop-2-enoic acid,C1C2CC(C1C=C2)C=CC(=O)O,413.15,10,"[1, 6, 8]",3,True,CHO,alkene
8086,"hexacyclo[4.4.0.02,5.03,9.04,8.07,10]decane",C12C3C4C1C5C2C6C3C4C56,416.0,10,"[1, 6]",2,True,CH,alkane
8087,"hexacyclo[4.4.0.02,4.03,9.05,7.08,10]decane",C12C3C4C3C5C1C5C6C2C46,416.0,10,"[1, 6]",2,True,CH,alkane
8088,"4-methyl-1,2,3,4-tetrahydroquinoline",CC1CCNC2=CC=CC=C12,416.65,10,"[1, 6, 7]",3,True,CHN,aromatic
8089,7-methylnon-1-yne,CCC(C)CCCCC#C,418.08,10,"[1, 6]",2,True,CH,alkyne
8090,"2-methyl-6-methylideneocta-1,7-diene",CC(=C)CCCC(=C)C=C,418.2,10,"[1, 6]",2,True,CH,alkene
8091,"(3,5-dimethylphenyl) N-methyl-N-nitrosocarbamate",CC1=CC(=CC(=C1)OC(=O)N(C)N=O)C,419.15,10,"[1, 6, 7, 8]",4,True,CHON,ester
8092,5-benzyl-1H-imidazole,C1=CC=C(C=C1)CC2=CN=CN2,419.65,10,"[1, 6, 7]",3,True,CHN,aromatic
8093,"2-hexyl-4-methyl-1,3-dioxolane",CCCCCCC1OCC(O1)C,419.65,10,"[1, 6, 8]",3,True,CHO,ester
8094,"1-methoxy-2,3-dihydro-1H-inden-2-ol",COC1C(CC2=CC=CC=C12)O,420.15,10,"[1, 6, 8]",3,True,CHO,ester
8095,"2-ethynyl-1,1,3,3-tetramethylcyclobutane",CC1(CC(C1C#C)(C)C)C,420.67,10,"[1, 6]",2,True,CH,alkyne
8096,"4-methoxy-2,5-dimethylbenzaldehyde",CC1=CC(=C(C=C1OC)C)C=O,421.15,10,"[1, 6, 8]",3,True,CHO,ester
8097,"2,6-dimethylocta-1,7-diene",CC(CCCC(=C)C)C=C,421.2,10,"[1, 6]",2,True,CH,alkene
8098,"9-methylidenepentacyclo[4.3.0.02,4.03,8.05,7]nonane",C=C1C2C3C4C3C1C5C4C52,421.63,10,"[1, 6]",2,True,CH,alkene
8099,(E)-dec-3-en-1-yne,CCCCCC/C=C/C#C,422.68,10,"[1, 6]",2,True,CH,alkene
8100,(E)-dec-5-en-1-yne,CCCC/C=C/CCC#C,422.68,10,"[1, 6]",2,True,CH,alkene
8101,(Z)-dec-3-en-1-yne,CCCCCC/C=C\C#C,422.68,10,"[1, 6]",2,True,CH,alkene
8102,4-prop-2-enoxybenzaldehyde,C=CCOC1=CC=C(C=C1)C=O,423.15,10,"[1, 6, 8]",3,True,CHO,ester
8103,3-ethyl-2-methylhept-1-ene,CCCCC(CC)C(=C)C,424.52,10,"[1, 6]",2,True,CH,alkene
8104,8-methylnon-1-ene,CC(C)CCCCCC=C,424.64,10,"[1, 6]",2,True,CH,alkene
8105,"3,5,5-trimethylhept-3-ene",CCC(=CC(C)(C)CC)C,424.65,10,"[1, 6]",2,True,CH,alkene
8106,(E)-3-(4-methylphenyl)prop-2-en-1-ol,CC1=CC=C(C=C1)/C=C/CO,425.15,10,"[1, 6, 8]",3,True,CHO,alkene
8107,"2,2-dimethyl-5-methylidenebicyclo[2.2.1]heptane",CC1(CC2CC1CC2=C)C,425.15,10,"[1, 6]",2,True,CH,alkene
8108,"2,5,6-trimethylhepta-1,3,6-triene",CC(C=CC(=C)C)C(=C)C,425.24,10,"[1, 6]",2,True,CH,alkene
8109,"(3E)-3,7-dimethylocta-1,3,7-triene",CC(=C)CC/C=C(\C)/C=C,425.68,10,"[1, 6]",2,True,CH,alkene
8110,"pentacyclo[4.4.0.02,5.03,8.04,7]dec-9-ene",C1=CC2C3C4C1C5C2C3C45,425.9,10,"[1, 6]",2,True,CH,alkene
8111,"pentacyclo[4.4.0.02,4.03,8.05,7]dec-9-ene",C1=CC2C3C4C1C5C2C5C43,425.9,10,"[1, 6]",2,True,CH,alkene
8112,"(5E)-deca-1,5,9-triene",C=CCC/C=C/CCC=C,425.92,10,"[1, 6]",2,True,CH,alkene
8113,"1,3,5,5-tetramethylcyclohexa-1,3-diene",CC1=CC(=CC(C1)(C)C)C,426.15,10,"[1, 6]",2,True,CH,alkene
8114,"1,3,3-trimethylbicyclo[2.2.1]heptane",CC1(CC2(CCC1C2)C)C,426.15,10,"[1, 6]",2,True,CH,alkane
8115,"2-hexyl-1,3-dioxane",CCCCCCC1OCCCO1,426.15,10,"[1, 6, 8]",3,True,CHO,ester
8116,ethyl 2-hydroxy-5-methylbenzoate,CCOC(=O)C1=C(C=CC(=C1)C)O,426.65,10,"[1, 6, 8]",3,True,CHO,ester
8117,"pentacyclo[4.4.0.02,4.03,8.05,7]decane",C1CC2C3C4C1C5C2C5C43,426.74,10,"[1, 6]",2,True,CH,alkane
8118,"pentacyclo[5.3.0.02,10.03,5.06,8]decane",C1C2C1C3C4C3C5C2C5C4,426.74,10,"[1, 6]",2,True,CH,alkane
8119,2-methylpropyl hexanoate,CCCCCC(=O)OCC(C)C,427.05,10,"[1, 6, 8]",3,True,CHO,ester
8120,dec-2-ene,CCCCCCCC=CC,427.15,10,"[1, 6]",2,True,CH,alkene
8121,"2-ethenyl-1,1,3,3-tetramethylcyclobutane",CC1(CC(C1C=C)(C)C)C,427.23,10,"[1, 6]",2,True,CH,alkene
8122,"deca-1,4-diyne",CCCCCC#CCC#C,427.52,10,"[1, 6]",2,True,CH,alkyne
8123,"deca-1,5-diyne",CCCCC#CCCC#C,427.52,10,"[1, 6]",2,True,CH,alkyne
8124,"1,2-bis(ethenyl)-1,2-dimethylcyclobutane",CC1(CCC1(C)C=C)C=C,428.58,10,"[1, 6]",2,True,CH,alkene
8125,"5,7-dimethylocta-1,6-diene",CC(CCC=C)C=C(C)C,428.68,10,"[1, 6]",2,True,CH,alkene
8126,"1,1-diethoxyhexane",CCCCCC(OCC)OCC,429.65,10,"[1, 6, 8]",3,True,CHO,ester
8127,"1-(2,5-dimethoxyphenyl)ethanone",CC(=O)C1=C(C=CC(=C1)OC)OC,429.65,10,"[1, 6, 8]",3,True,CHO,ester
8128,"1,3,8-triazatricyclo[7.4.0.02,7]trideca-2(7),3,5,8,10,12-hexaen-4-amine",C1=CC2=NC3=C(N2C=C1)N=C(C=C3)N,429.65,10,"[1, 6, 7]",3,True,CHN,aromatic
8129,"2,2,5,5-tetramethylhex-3-yne",CC(C)(C)C#CC(C)(C)C,430.94,10,"[1, 6]",2,True,CH,alkyne
8130,"3,4-diethylhex-3-ene",CCC(=C(CC)CC)CC,431.4,10,"[1, 6]",2,True,CH,alkene
8131,"(Z)-2,3,4,5-tetramethylhex-3-ene",CC(C)/C(=C(/C)\C(C)C)/C,431.44,10,"[1, 6]",2,True,CH,alkene
8132,"(E)-2,3,4,5-tetramethylhex-3-ene",CC(C)/C(=C(\C)/C(C)C)/C,431.44,10,"[1, 6]",2,True,CH,alkene
8133,"2,3-dimethyloct-2-ene",CCCCCC(=C(C)C)C,431.75,10,"[1, 6]",2,True,CH,alkene
8134,"(E)-3,4-diethylhex-2-ene",CCC(CC)/C(=C/C)/CC,432.0,10,"[1, 6]",2,True,CH,alkene
8135,"4-ethenyl-1,4-dimethylcyclohexene",CC1=CCC(CC1)(C)C=C,432.15,10,"[1, 6]",2,True,CH,alkene
8136,3-ethyl-2-methylhept-2-ene,CCCCC(=C(C)C)CC,432.32,10,"[1, 6]",2,True,CH,alkene
8137,(E)-dec-3-ene,CCCCCC/C=C/CC,432.56,10,"[1, 6]",2,True,CH,alkene
8138,(Z)-dec-4-ene,CCCCC/C=C\CCC,432.56,10,"[1, 6]",2,True,CH,alkene
8139,(E)-dec-4-ene,CCCCC/C=C/CCC,432.56,10,"[1, 6]",2,True,CH,alkene
8140,"6,6-dimethyl-4-methylidenebicyclo[3.1.1]hept-2-ene",CC1(C2CC1C(=C)C=C2)C,432.65,10,"[1, 6]",2,True,CH,alkene
8141,"2-(2,5-dimethoxyphenyl)ethanamine",COC1=CC(=C(C=C1)OC)CCN,433.15,10,"[1, 6, 7, 8]",4,True,CHON,ester
8142,1-(4-methoxyphenyl)prop-2-en-1-one,COC1=CC=C(C=C1)C(=O)C=C,433.15,10,"[1, 6, 8]",3,True,CHO,ester
8143,"1,1,3,4-tetramethylcyclohexane",CC1CCC(CC1C)(C)C,433.15,10,"[1, 6]",2,True,CH,alkane
8144,"(3Z)-3,7-dimethylocta-1,3,6-triene",CC(=CC/C=C(/C)\C=C)C,433.16,10,"[1, 6]",2,True,CH,alkene
8145,"(3E,7E)-deca-1,3,7-triene",CC/C=C/CC/C=C/C=C,433.4,10,"[1, 6]",2,True,CH,alkene
8146,4-propylhept-3-ene,CCCC(=CCC)CCC,433.65,10,"[1, 6]",2,True,CH,alkene
8147,2-methylnon-1-en-3-yne,CCCCCC#CC(=C)C,433.96,10,"[1, 6]",2,True,CH,alkene
8148,"2,2,5,5-tetramethylhexan-3-one",CC(C)(C)CC(=O)C(C)(C)C,434.0273,10,"[1, 6, 8]",3,True,CHO,ketone
8149,dec-1-en-4-yne,CCCCCC#CCC=C,434.08,10,"[1, 6]",2,True,CH,alkene
8150,"2,2-dimethyloct-3-yne",CCCCC#CC(C)(C)C,434.17,10,"[1, 6]",2,True,CH,alkyne
8151,3-(4-methoxyphenyl)propan-1-ol,COC1=CC=C(C=C1)CCCO,435.15,10,"[1, 6, 8]",3,True,CHO,ester
8152,"deca-1,3,5,7,9-pentayne",C#CC#CC#CC#CC#C,435.64,10,"[1, 6]",2,True,CH,alkyne
8153,"tetracyclo[5.3.0.02,6.03,10]deca-4,8-diene",C1=CC2C3C=CC4C1C2C43,435.8,10,"[1, 6]",2,True,CH,alkene
8154,"ethyl 2,4-dimethyl-6-oxopyran-3-carboxylate",CCOC(=O)C1=C(OC(=O)C=C1C)C,436.15,10,"[1, 6, 8]",3,True,CHO,ester
8155,"1,2,3,5-tetramethylcyclohexane",CC1CC(C(C(C1)C)C)C,436.15,10,"[1, 6]",2,True,CH,alkane
8156,"2,6-dimethyloct-2-ene",CCC(C)CCC=C(C)C,436.15,10,"[1, 6]",2,True,CH,alkene
8157,"4,7,7-trimethylbicyclo[4.1.0]hept-2-ene",CC1CC2C(C2(C)C)C=C1,436.21,10,"[1, 6]",2,True,CH,alkene
8158,"(6E)-2,6-dimethylocta-2,6-diene",C/C=C(\C)/CCC=C(C)C,436.48,10,"[1, 6]",2,True,CH,alkene
8159,"2,6-dimethylocta-2,5-diene",CCC(=CCC=C(C)C)C,436.48,10,"[1, 6]",2,True,CH,alkene
8160,"tetracyclo[5.2.1.02,6.03,5]dec-8-ene",C1C2C=CC1C3C2C4C3C4,436.64,10,"[1, 6]",2,True,CH,alkene
8161,"tetracyclo[5.3.0.02,6.03,10]dec-4-ene",C1CC2C3C=CC4C1C2C43,436.64,10,"[1, 6]",2,True,CH,alkene
8162,"(2E,8E)-deca-2,8-diene",C/C=C/CCCC/C=C/C,436.72,10,"[1, 6]",2,True,CH,alkene
8163,"(3E,6E)-deca-3,6-diene",CCC/C=C/C/C=C/CC,436.72,10,"[1, 6]",2,True,CH,alkene
8164,8-methylnon-4-yne,CCCC#CCCC(C)C,436.96,10,"[1, 6]",2,True,CH,alkyne
8165,4-methylidene-1-propan-2-ylbicyclo[3.1.0]hexane,CC(C)C12CCC(=C)C1C2,437.15,10,"[1, 6]",2,True,CH,alkene
8166,"1,1,4-trimethylcycloheptane",CC1CCCC(CC1)(C)C,437.15,10,"[1, 6]",2,True,CH,alkane
8167,dec-4-yne,CCCCCC#CCCC,437.4,10,"[1, 6]",2,True,CH,alkyne
8168,"tetracyclo[5.3.0.02,6.03,10]decane",C1CC2C3CCC4C1C2C43,437.48,10,"[1, 6]",2,True,CH,alkane
8169,"tetracyclo[5.2.1.02,6.03,5]decane",C1CC2CC1C3C2C4C3C4,437.48,10,"[1, 6]",2,True,CH,alkane
8170,"tetracyclo[7.1.0.02,4.05,7]decane",C1C2CC2C3CC3C4C1C4,437.48,10,"[1, 6]",2,True,CH,alkane
8171,"1,1,3,5-tetramethylcyclohexane",CC1CC(CC(C1)(C)C)C,438.85,10,"[1, 6]",2,True,CH,alkane
8172,"3,7-dimethylocta-1,6-diene",CC(CCC=C(C)C)C=C,439.15,10,"[1, 6]",2,True,CH,alkene
8173,"1,3,3,4,6,6-hexamethyl-2,5,7-trioxabicyclo[2.2.1]heptane",CC1(C2(OC(C(O1)(O2)C)(C)C)C)C,439.15,10,"[1, 6, 8]",3,True,CHO,ester
8174,"2,7-dimethylocta-1,7-dien-3,5-diyne",CC(=C)C#CC#CC(=C)C,439.52,10,"[1, 6]",2,True,CH,alkene
8175,"2-methyl-N,N-di(propan-2-yl)propan-1-amine",CC(C)CN(C(C)C)C(C)C,439.52,10,"[1, 6, 7]",3,True,CHN,amine
8176,2-methyl-3-propan-2-ylhexane,CCCC(C(C)C)C(C)C,439.86,10,"[1, 6]",2,True,CH,alkane
8177,"(4E,6Z)-2,6-dimethylocta-2,4,6-triene",C/C=C(/C)\C=C\C=C(C)C,440.64,10,"[1, 6]",2,True,CH,alkene
8178,"3,4-dimethylocta-2,4,6-triene",CC=CC=C(C)C(=CC)C,440.64,10,"[1, 6]",2,True,CH,alkene
8179,2-(2-propanoyloxyethoxy)ethyl propanoate,CCC(=O)OCCOCCOC(=O)CC,440.65,10,"[1, 6, 8]",3,True,CHO,ester
8180,1-tert-butylcyclohexene,CC(C)(C)C1=CCCCC1,440.65,10,"[1, 6]",2,True,CH,alkene
8181,"N,N-dipropylbutan-1-amine",CCCCN(CCC)CCC,440.84,10,"[1, 6, 7]",3,True,CHN,amine
8182,2-methyl-3-propan-2-ylhex-2-en-4-yne,CC#CC(=C(C)C)C(C)C,440.88,10,"[1, 6]",2,True,CH,alkene
8183,"2-methylidenetricyclo[4.2.1.03,9]nona-4,7-diene",C=C1C2C=CC3C2C1C=C3,441.43,10,"[1, 6]",2,True,CH,alkene
8184,5-ethenylbicyclo[2.2.2]oct-2-ene,C=CC1CC2CCC1C=C2,441.59,10,"[1, 6]",2,True,CH,alkene
8185,"3,3,6,6-tetramethylcyclohexa-1,4-diene",CC1(C=CC(C=C1)(C)C)C,442.08,10,"[1, 6]",2,True,CH,alkene
8186,3-methylbutylcyclopentane,CC(C)CCC1CCCC1,442.15,10,"[1, 6]",2,True,CH,alkane
8187,"2,2,5,5-tetramethylhexane-3,4-dione",CC(C)(C)C(=O)C(=O)C(C)(C)C,442.15,10,"[1, 6, 8]",3,True,CHO,ketone
8188,"9-methylidenetricyclo[4.2.1.02,5]non-7-ene",C=C1C2C=CC1C3C2CC3,442.27,10,"[1, 6]",2,True,CH,alkene
8189,3-(3-methylbutyl)cyclopentene,CC(C)CCC1CCC=C1,442.4,10,"[1, 6]",2,True,CH,alkene
8190,dec-5-ene,CCCCC=CCCCC,442.75,10,"[1, 6]",2,True,CH,alkene
8191,3-pentylcyclopentene,CCCCCC1CCC=C1,442.84,10,"[1, 6]",2,True,CH,alkene
8192,"tricyclo[5.2.1.02,6]deca-3,8-diene",C1C=CC2C1C3CC2C=C3,442.9367,10,"[1, 6]",2,True,CH,alkene
8193,"1,2-bis[(E)-prop-1-enyl]cyclobutane",C/C=C/C1C(CC1)/C=C/C,443.06,10,"[1, 6]",2,True,CH,alkene
8194,"9-methylidenetricyclo[4.2.1.02,5]nonane",C=C1C2CCC1C3C2CC3,443.11,10,"[1, 6]",2,True,CH,alkene
8195,"2-methyl-1,1-dipropoxypropane",CCCOC(C(C)C)OCCC,443.15,10,"[1, 6, 8]",3,True,CHO,ester
8196,"3,7,7-trimethylbicyclo[4.1.0]hept-3-ene",CC1=CCC2C(C1)C2(C)C,443.15,10,"[1, 6]",2,True,CH,alkene
8197,(E)-dec-2-ene,CCCCCCC/C=C/C,443.15,10,"[1, 6]",2,True,CH,alkene
8198,"3,6-dimethylocta-2,6-dien-4-yne",CC=C(C)C#CC(=CC)C,443.15,10,"[1, 6]",2,True,CH,alkene
8199,"1,4-diethylcyclohexane",CCC1CCC(CC1)CC,443.28,10,"[1, 6]",2,True,CH,alkane
8200,1-methylidene-4-prop-1-en-2-ylcyclohexane,CC(=C)C1CCC(=C)CC1,443.67,10,"[1, 6]",2,True,CH,alkene
8201,dec-4-ene,CCCCCC=CCCC,443.75,10,"[1, 6]",2,True,CH,alkene
8202,"1,1,3,3-tetramethylcyclohexane",CC1(CCCC(C1)(C)C)C,443.76,10,"[1, 6]",2,True,CH,alkane
8203,3-tert-butylcyclohexene,CC(C)(C)C1CCCC=C1,443.88,10,"[1, 6]",2,True,CH,alkene
8204,"(4E)-deca-1,4-diene",CCCCC/C=C/CC=C,443.9,10,"[1, 6]",2,True,CH,alkene
8205,2-methyl-2-[2-[(2-methylpropan-2-yl)oxy]ethoxy]propane,CC(C)(C)OCCOC(C)(C)C,444.15,10,"[1, 6, 8]",3,True,CHO,ester
8206,2-methyl-1-[1-(2-methylpropoxy)ethoxy]propane,CC(C)COC(C)OCC(C)C,444.45,10,"[1, 6, 8]",3,True,CHO,ester
8207,5-ethylbicyclo[2.2.2]oct-2-ene,CCC1CC2CCC1C=C2,444.91,10,"[1, 6]",2,True,CH,alkene
8208,N-butyl-N-ethylbutan-1-amine,CCCCN(CC)CCCC,445.65,10,"[1, 6, 7]",3,True,CHN,amine
8209,"tricyclo[3.3.2.02,8]deca-3,6,9-triene",C1=CC2C3C2C=CC1C=C3,445.7,10,"[1, 6]",2,True,CH,alkene
8210,"tricyclo[5.2.1.04,10]deca-2,5,8-triene",C1=CC2C=CC3C2C1C=C3,445.7,10,"[1, 6]",2,True,CH,alkene
8211,(1-cyclopropyl-2-methylprop-1-enyl)cyclopropane,CC(=C(C1CC1)C2CC2)C,445.8,10,"[1, 6]",2,True,CH,alkene
8212,"2,7,7-trimethylbicyclo[2.2.1]hept-2-ene",CC1=CC2CCC1C2(C)C,445.86,10,"[1, 6]",2,True,CH,alkene
8213,"deca-2,8-diyne",CC#CCCCCC#CC,446.4,10,"[1, 6]",2,True,CH,alkyne
8214,"deca-4,6-diyne",CCCC#CC#CCCC,446.4,10,"[1, 6]",2,True,CH,alkyne
8215,3-(3-methylbut-1-en-2-yloxy)pentane,CCC(CC)OC(=C)C(C)C,446.5,10,"[1, 6, 8]",3,True,CHO,ester
8216,"tricyclo[3.3.2.02,8]deca-3,6-diene",C1CC2C3C2C=CC1C=C3,446.54,10,"[1, 6]",2,True,CH,alkene
8217,"tricyclo[5.2.1.04,10]deca-2,5-diene",C1CC2C=CC3C2C1C=C3,446.54,10,"[1, 6]",2,True,CH,alkene
8218,"tricyclo[5.3.0.02,8]deca-3,5-diene",C1CC2C3C1C2C=CC=C3,446.54,10,"[1, 6]",2,True,CH,alkene
8219,3-(2-methylpropyl)cyclohexene,CC(C)CC1CCCC=C1,446.67,10,"[1, 6]",2,True,CH,alkene
8220,3-butan-2-ylcyclohexene,CCC(C)C1CCCC=C1,446.67,10,"[1, 6]",2,True,CH,alkene
8221,"1,5,5,6-tetramethylcyclohexa-1,3-diene",CC1C(=CC=CC1(C)C)C,446.82,10,"[1, 6]",2,True,CH,alkene
8222,3-(ethenoxymethyl)heptane,CCCCC(CC)COC=C,447.06,10,"[1, 6, 8]",3,True,CHO,ester
8223,"7,8-dimethylidenebicyclo[2.2.2]octa-2,5-diene",C=C1C2C=CC(C1=C)C=C2,447.06,10,"[1, 6]",2,True,CH,alkene
8224,3-butylcyclohexene,CCCCC1CCCC=C1,447.11,10,"[1, 6]",2,True,CH,alkene
8225,4-butylcyclohexene,CCCCC1CCC=CC1,447.11,10,"[1, 6]",2,True,CH,alkene
8226,1-methylidene-4-propan-2-ylcyclohexane,CC(C)C1CCC(=C)CC1,447.15,10,"[1, 6]",2,True,CH,alkene
8227,"tetracyclo[3.3.1.13,7.01,3]decane",C1C2CC34CC1CC3(C2)C4,447.3,10,"[1, 6]",2,True,CH,alkane
8228,"tricyclo[5.2.1.02,6]dec-8-ene",C1CC2C(C1)C3CC2C=C3,447.38,10,"[1, 6]",2,True,CH,alkene
8229,"tricyclo[5.2.1.02,6]dec-3-ene",C1CC2CC1C3C2C=CC3,447.38,10,"[1, 6]",2,True,CH,alkene
8230,"tricyclo[5.2.1.04,10]dec-2-ene",C1CC2C=CC3C2C1CC3,447.38,10,"[1, 6]",2,True,CH,alkene
8231,1-methyl-1-propan-2-ylcyclohexane,CC(C)C1(CCCCC1)C,447.75,10,"[1, 6]",2,True,CH,alkane