,Name,SMILES,Tb,C Atom,Atom,Count Unique Atom,Pass Screen,Atom2,Func. Group
6796,pentan-2-yl 2-cyanoacetate,CCCC(C)OC(=O)CC#N,542.5,8,"[1, 6, 7, 8]",4,True,CHON,ester
6797,3-piperidin-4-ylpropan-1-ol,C1CNCCC1CCCO,542.92,8,"[1, 6, 7, 8]",4,True,CHON,alcohol
6798,4-methylcyclohexane-1-carboxylic acid,CC1CCC(CC1)C(=O)O,543.03,8,"[1, 6, 8]",3,True,CHO,alcohol
6799,"4-(1,3-dioxolan-4-ylmethoxymethyl)-1,3-dioxolane",C1C(OCO1)COCC2COCO2,543.42,8,"[1, 6, 8]",3,True,CHO,ester
6800,3-cyclopentylpropanoic acid,C1CCC(C1)CCC(=O)O,543.43,8,"[1, 6, 8]",3,True,CHO,alcohol
6801,"2-(2-methyl-1,3-dioxan-2-yl)propan-2-ol",CC1(OCCCO1)C(C)(C)O,545.28,8,"[1, 6, 8]",3,True,CHO,ester
6802,bicyclo[2.2.1]heptane-1-carboxylic acid,C1CC2(CCC1C2)C(=O)O,546.14,8,"[1, 6, 8]",3,True,CHO,alcohol
6803,"1-butylpyrrolidine-2,5-dione",CCCCN1C(=O)CCC1=O,546.4,8,"[1, 6, 7, 8]",4,True,CHON,amide
6804,methyl 2-aminocyclohexene-1-carboxylate,COC(=O)C1=C(CCCC1)N,546.73,8,"[1, 6, 7, 8]",4,True,CHON,ester
6805,ethyl 2-cyano-3-methylbut-2-enoate,CCOC(=O)C(=C(C)C)C#N,546.86,8,"[1, 6, 7, 8]",4,True,CHON,ester
6806,"3-amino-5,5-dimethylcyclohex-2-en-1-one",CC1(CC(=CC(=O)C1)N)C,546.92,8,"[1, 6, 7, 8]",4,True,CHON,ketone
6807,3-[3-(dimethylamino)propylamino]propanenitrile,CN(C)CCCNCCC#N,547.33,8,"[1, 6, 7]",3,True,CHN,amine
6808,4-methylbenzoic acid,CC1=CC=C(C=C1)C(=O)O,547.7,8,"[1, 6, 8]",3,True,CHO,aromatic
6809,methyl 2-hydroxycyclohexane-1-carboxylate,COC(=O)C1CCCCC1O,547.92,8,"[1, 6, 8]",3,True,CHO,ester
6810,"(E)-5-methylhept-4-ene-2,3,6-trione",C/C(=C\C(=O)C(=O)C)/C(=O)C,548.29,8,"[1, 6, 8]",3,True,CHO,alkene
6811,4-hydroxy-3-methyl-2-propyl-2H-furan-5-one,CCCC1C(=C(C(=O)O1)O)C,548.9,8,"[1, 6, 8]",3,True,CHO,ester
6812,methyl 2-[[(E)-2-methylbut-2-enoyl]amino]acetate,C/C=C(\C)/C(=O)NCC(=O)OC,548.94,8,"[1, 6, 7, 8]",4,True,CHON,ester
6813,2-(2-acetyloxyethylamino)ethyl acetate,CC(=O)OCCNCCOC(=O)C,549.25,8,"[1, 6, 7, 8]",4,True,CHON,ester
6814,N-butyl-N-(3-hydroxybutyl)nitrous amide,CCCCN(CCC(C)O)N=O,550.22,8,"[1, 6, 7, 8]",4,True,CHON,alcohol
6815,N-butyl-N-(2-hydroxybutyl)nitrous amide,CCCCN(CC(CC)O)N=O,550.22,8,"[1, 6, 7, 8]",4,True,CHON,alcohol
6816,ethyl N-(morpholin-4-ylmethyl)carbamate,CCOC(=O)NCN1CCOCC1,550.37,8,"[1, 6, 7, 8]",4,True,CHON,ester
6817,"2,5-dimethylcyclohexa-2,5-diene-1,4-dione",CC1=CC(=O)C(=CC1=O)C,550.78,8,"[1, 6, 8]",3,True,CHO,alkene
6818,"2,3-dimethylcyclohexa-2,5-diene-1,4-dione",CC1=C(C(=O)C=CC1=O)C,550.78,8,"[1, 6, 8]",3,True,CHO,alkene
6819,"2,6-dimethylcyclohexa-2,5-diene-1,4-dione",CC1=CC(=O)C=C(C1=O)C,550.78,8,"[1, 6, 8]",3,True,CHO,alkene
6820,"cyclooctane-1,5-dione",C1CC(=O)CCCC(=O)C1,551.04,8,"[1, 6, 8]",3,True,CHO,ketone
6821,"cyclooctane-1,4-dione",C1CCC(=O)CCC(=O)C1,551.04,8,"[1, 6, 8]",3,True,CHO,ketone
6822,N-ethyl-N-(2-methylpyridin-4-yl)nitrous amide,CCN(C1=CC(=NC=C1)C)N=O,552.2,8,"[1, 6, 7, 8]",4,True,CHON,aromatic
6823,dimethyl 3-oxohexanedioate,COC(=O)CCC(=O)CC(=O)OC,552.95,8,"[1, 6, 8]",3,True,CHO,ester
6824,4-butyl-3-hydroxy-2H-furan-5-one,CCCCC1=C(COC1=O)O,553.57,8,"[1, 6, 8]",3,True,CHO,ester
6825,3-methyl-2H-indazole,CC1=C2C=CC=CC2=NN1,553.65,8,"[1, 6, 7]",3,True,CHN,aromatic
6826,2-amino-2-methylheptanenitrile,CCCCCC(C)(C#N)N,554.02,8,"[1, 6, 7]",3,True,CHN,amine
6827,2-(cyclohexylamino)acetonitrile,C1CCC(CC1)NCC#N,554.44,8,"[1, 6, 7]",3,True,CHN,amine
6828,"1-(2,5-dimethoxy-2H-furan-5-yl)ethanol",CC(C1(C=CC(O1)OC)OC)O,556.18,8,"[1, 6, 8]",3,True,CHO,ester
6829,"1-[(5R)-2,5-dimethoxy-2H-furan-5-yl]ethanol",CC([C@]1(C=CC(O1)OC)OC)O,556.18,8,"[1, 6, 8]",3,True,CHO,ester
6830,2-(cyclohexen-1-yl)acetic acid,C1CCC(=CC1)CC(=O)O,556.51,8,"[1, 6, 8]",3,True,CHO,alkene
6831,2-(2-morpholin-4-ylethoxy)ethanol,C1COCCN1CCOCCO,556.58,8,"[1, 6, 7, 8]",4,True,CHON,ester
6832,2-aminooctanenitrile,CCCCCCC(C#N)N,556.81,8,"[1, 6, 7]",3,True,CHN,amine
6833,"bicyclo[4.2.0]octa-1(6),3-diene-2,5-dione",C1CC2=C1C(=O)C=CC2=O,557.92,8,"[1, 6, 8]",3,True,CHO,alkene
6834,"methyl 3,5,5-trimethyl-4H-pyrazole-3-carboxylate",CC1(CC(N=N1)(C)C(=O)OC)C,558.51,8,"[1, 6, 7, 8]",4,True,CHON,ester
6835,octanehydrazide,CCCCCCCC(=O)NN,559.21,8,"[1, 6, 7, 8]",4,True,CHON,amide
6836,3-aminobicyclo[2.2.2]octan-2-ol,C1CC2CCC1C(C2O)N,560.03,8,"[1, 6, 7, 8]",4,True,CHON,alcohol
6837,"2,4,4-trimethylpentane-2,3-diol",CC(C)(C)C(C(C)(C)O)O,560.1,8,"[1, 6, 8]",3,True,CHO,alcohol
6838,"3,4-dimethylhexane-3,4-diol",CCC(C)(C(C)(CC)O)O,560.54,8,"[1, 6, 8]",3,True,CHO,alcohol
6839,3-piperidin-1-ylpropanoic acid,C1CCN(CC1)CCC(=O)O,560.54,8,"[1, 6, 7, 8]",4,True,CHON,carboxylic_acid
6840,"3,6-dimethylidene-7-oxabicyclo[2.2.1]heptane-2,5-dione",C=C1C2C(=O)C(=C)C(C1=O)O2,561.3,8,"[1, 6, 8]",3,True,CHO,ester
6841,2-(2-cyanoethoxy)ethyl prop-2-enoate,C=CC(=O)OCCOCCC#N,561.6,8,"[1, 6, 7, 8]",4,True,CHON,ester
6842,"1,4,7-trioxa-10-azacyclododecane",C1COCCOCCOCCN1,561.88,8,"[1, 6, 7, 8]",4,True,CHON,ester
6843,[4-(aminomethyl)cyclohexyl]methanol,C1CC(CCC1CN)CO,562.23,8,"[1, 6, 7, 8]",4,True,CHON,alcohol
6844,N-(3-methylphenyl)formamide,CC1=CC(=CC=C1)NC=O,563.15,8,"[1, 6, 7, 8]",4,True,CHON,aromatic
6845,"2-butan-2-yl-2-methylpropane-1,3-diol",CCC(C)C(C)(CO)CO,563.33,8,"[1, 6, 8]",3,True,CHO,alcohol
6846,3-methoxycyclohexane-1-carboxylic acid,COC1CCCC(C1)C(=O)O,565.45,8,"[1, 6, 8]",3,True,CHO,carboxylic_acid
6847,"3-methylheptane-2,4-diol",CCCC(C(C)C(C)O)O,565.68,8,"[1, 6, 8]",3,True,CHO,alcohol
6848,"octane-3,6-diol",CCC(CCC(CC)O)O,566.12,8,"[1, 6, 8]",3,True,CHO,alcohol
6849,"octane-2,4-diol",CCCCC(CC(C)O)O,566.12,8,"[1, 6, 8]",3,True,CHO,alcohol
6850,"N,N-bis(2-oxobutyl)nitrous amide",CCC(=O)CN(CC(=O)CC)N=O,566.22,8,"[1, 6, 7, 8]",4,True,CHON,ketone
6851,"octane-1,2-diol",CCCCCCC(CO)O,566.56,8,"[1, 6, 8]",3,True,CHO,alcohol
6852,"octane-1,3-diol",CCCCCC(CCO)O,566.56,8,"[1, 6, 8]",3,True,CHO,alcohol
6853,"octane-1,4-diol",CCCCC(CCCO)O,566.56,8,"[1, 6, 8]",3,True,CHO,alcohol
6854,"3-hydroxy-5,5-dimethylcyclohex-2-en-1-one",CC1(CC(=CC(=O)C1)O)C,566.57,8,"[1, 6, 8]",3,True,CHO,alkene
6855,3-ethyl-2-hydroxy-4-methylcyclopent-2-en-1-one,CCC1=C(C(=O)CC1C)O,567.04,8,"[1, 6, 8]",3,True,CHO,alkene
6856,5-ethyl-2-hydroxy-3-methylcyclopent-2-en-1-one,CCC1CC(=C(C1=O)O)C,567.04,8,"[1, 6, 8]",3,True,CHO,alkene
6857,4-ethyl-2-hydroxy-3-methylcyclopent-2-en-1-one,CCC1CC(=O)C(=C1C)O,567.04,8,"[1, 6, 8]",3,True,CHO,alkene
6858,5-methyl-1H-indazole,CC1=CC2=C(C=C1)NN=C2,567.15,8,"[1, 6, 7]",3,True,CHN,aromatic
6859,2-[4-(2-aminoethyl)piperazin-1-yl]ethanamine,C1CN(CCN1CCN)CCN,568.26,8,"[1, 6, 7]",3,True,CHN,amine
6860,"5,5-diethyl-1,3-oxazinane-2,4-dione",CCC1(COC(=O)NC1=O)CC,568.48,8,"[1, 6, 7, 8]",4,True,CHON,ester
6861,"4-imino-3,5-dimethylcyclohexa-2,5-dien-1-one",CC1=CC(=O)C=C(C1=N)C,569.9,8,"[1, 6, 7, 8]",4,True,CHON,alkene
6862,(E)-bis(2-methoxypropan-2-yl)diazene,CC(C)(/N=N/C(C)(C)OC)OC,570.22,8,"[1, 6, 7, 8]",4,True,CHON,ester
6863,(E)-bis[(2-methylpropan-2-yl)oxy]diazene,CC(C)(C)O/N=N/OC(C)(C)C,570.22,8,"[1, 6, 7, 8]",4,True,CHON,ester
6864,3-oxo-3-piperidin-1-ylpropanenitrile,C1CCN(CC1)C(=O)CC#N,570.98,8,"[1, 6, 7, 8]",4,True,CHON,amide
6865,diethyl 2-aminobutanedioate,CCOC(=O)CC(C(=O)OCC)N,571.17,8,"[1, 6, 7, 8]",4,True,CHON,ester
6866,2-hydroxy-3-propylcyclopent-2-en-1-one,CCCC1=C(C(=O)CC1)O,571.71,8,"[1, 6, 8]",3,True,CHO,alkene
6867,3-[2-(3-aminopropoxy)ethoxy]propan-1-amine,C(CN)COCCOCCCN,572.54,8,"[1, 6, 7, 8]",4,True,CHON,ester
6868,2-[2-[carboxymethyl(methyl)amino]ethyl-methylamino]acetic acid,CN(CCN(C)CC(=O)O)CC(=O)O,573.15,8,"[1, 6, 7, 8]",4,True,CHON,carboxylic_acid
6869,"2-amino-4-methoxy-2,4-dimethylpentanenitrile",CC(C)(CC(C)(C#N)N)OC,573.21,8,"[1, 6, 7, 8]",4,True,CHON,ester
6870,2-hydroxy-2-propylpentanenitrile,CCCC(CCC)(C#N)O,573.67,8,"[1, 6, 7, 8]",4,True,CHON,alcohol
6871,2-[2-acetyloxyethyl(nitroso)amino]ethyl acetate,CC(=O)OCCN(CCOC(=O)C)N=O,574.92,8,"[1, 6, 7, 8]",4,True,CHON,ester
6872,3-[acetyloxymethyl(nitroso)amino]propyl acetate,CC(=O)OCCCN(COC(=O)C)N=O,574.92,8,"[1, 6, 7, 8]",4,True,CHON,ester
6873,methyl 4-[acetyloxymethyl(nitroso)amino]butanoate,CC(=O)OCN(CCCC(=O)OC)N=O,574.92,8,"[1, 6, 7, 8]",4,True,CHON,ester
6874,ethyl 2-oxopiperidine-3-carboxylate,CCOC(=O)C1CCCNC1=O,576.78,8,"[1, 6, 7, 8]",4,True,CHON,ester
6875,2-[2-(2-hydroxyethoxy)ethoxy]ethyl acetate,CC(=O)OCCOCCOCCO,577.88,8,"[1, 6, 8]",3,True,CHO,ester
6876,2-(2-hydroxyethylamino)ethyl 2-methylprop-2-enoate,CC(=C)C(=O)OCCNCCO,579.77,8,"[1, 6, 7, 8]",4,True,CHON,ester
6877,2-(1-hydroxyethyl)cyclohexan-1-ol,CC(C1CCCCC1O)O,581.44,8,"[1, 6, 8]",3,True,CHO,alcohol
6878,7-oxooctanoic acid,CC(=O)CCCCCC(=O)O,582.02,8,"[1, 6, 8]",3,True,CHO,carboxylic_acid
6879,"3-methyl-3-propylpyrrolidine-2,5-dione",CCCC1(CC(=O)NC1=O)C,582.35,8,"[1, 6, 7, 8]",4,True,CHON,amide
6880,4-acetyloxyhex-5-enoic acid,CC(=O)OC(CCC(=O)O)C=C,582.61,8,"[1, 6, 8]",3,True,CHO,carboxylic_acid
6881,"1,7-dioxa-4,10-diazacyclododecane",C1COCCNCCOCCN1,583.48,8,"[1, 6, 7, 8]",4,True,CHON,ester
6882,"1,3,5,7-tetramethyl-1,3,5,7-tetrazocane-2,6-dione",CN1CN(C(=O)N(CN(C1=O)C)C)C,583.72,8,"[1, 6, 7, 8]",4,True,CHON,amide
6883,N-[2-(prop-2-enoylamino)ethyl]prop-2-enamide,C=CC(=O)NCCNC(=O)C=C,584.08,8,"[1, 6, 7, 8]",4,True,CHON,alkene
6884,"4-[[hydroxy(methyl)amino]methylidene]cyclohexa-2,5-dien-1-one",CN(C=C1C=CC(=O)C=C1)O,584.26,8,"[1, 6, 7, 8]",4,True,CHON,alkene
6885,4-(2-methylpropoxy)-4-oxobutanoic acid,CC(C)COC(=O)CCC(=O)O,585.93,8,"[1, 6, 8]",3,True,CHO,carboxylic_acid
6886,[1-(hydroxymethyl)cyclohex-3-en-1-yl]methanol,C1CC(CC=C1)(CO)CO,585.95,8,"[1, 6, 8]",3,True,CHO,alkene
6887,"1-cyclohexylethane-1,2-diol",C1CCC(CC1)C(CO)O,586.11,8,"[1, 6, 8]",3,True,CHO,alcohol
6888,"N'-(2-piperazin-1-ylethyl)ethane-1,2-diamine",C1CN(CCN1)CCNCCN,586.28,8,"[1, 6, 7]",3,True,CHN,amine
6889,ethyl 3-hydroxy-5-methyl-2H-pyrrole-4-carboxylate,CCOC(=O)C1=C(CN=C1C)O,586.3,8,"[1, 6, 7, 8]",4,True,CHON,ester
6890,4-butoxy-4-oxobutanoic acid,CCCCOC(=O)CCC(=O)O,586.37,8,"[1, 6, 8]",3,True,CHO,carboxylic_acid
6891,"4-ethyl-4-methylpiperidine-2,6-dione",CCC1(CC(=O)NC(=O)C1)C,586.62,8,"[1, 6, 7, 8]",4,True,CHON,amide
6892,dimethyl 3-hydroxy-3-methylpentanedioate,CC(CC(=O)OC)(CC(=O)OC)O,588.03,8,"[1, 6, 8]",3,True,CHO,ester
6893,4-(3-hydroxybutoxy)butan-2-ol,CC(CCOCCC(C)O)O,588.54,8,"[1, 6, 8]",3,True,CHO,ester
6894,3-(4-hydroxybutan-2-yloxy)butan-1-ol,CC(CCO)OC(C)CCO,588.54,8,"[1, 6, 8]",3,True,CHO,ester
6895,4-(4-hydroxybutan-2-yloxy)butan-2-ol,CC(CCOC(C)CCO)O,588.54,8,"[1, 6, 8]",3,True,CHO,ester
6896,3-aminobicyclo[2.2.1]hept-5-ene-2-carboxamide,C1C2C=CC1C(C2C(=O)N)N,589.14,8,"[1, 6, 7, 8]",4,True,CHON,amide
6897,"cyclooctane-1,5-diol",C1CC(CCCC(C1)O)O,590.42,8,"[1, 6, 8]",3,True,CHO,alcohol
6898,"2-acetylcyclohexane-1,3-dione",CC(=O)C1C(=O)CCCC1=O,591.7,8,"[1, 6, 8]",3,True,CHO,ketone
6899,"7-(hydroxymethyl)-2,3,5,6,7,8-hexahydro-1H-pyrrolizin-1-ol",C1CN2CCC(C2C1CO)O,592.52,8,"[1, 6, 7, 8]",4,True,CHON,alcohol
6900,"3a,4,5,6,7,7a-hexahydroisoindole-1,3-dione",C1CCC2C(C1)C(=O)NC2=O,593.12,8,"[1, 6, 7, 8]",4,True,CHON,amide
6901,2-[2-[2-(2-aminoethoxy)ethoxy]ethoxy]ethanamine,C(COCCOCCOCCN)N,594.96,8,"[1, 6, 7, 8]",4,True,CHON,ester
6902,2-[methyl-[(2-methylpropan-2-yl)oxycarbonyl]amino]acetic acid,CC(C)(C)OC(=O)N(C)CC(=O)O,595.58,8,"[1, 6, 7, 8]",4,True,CHON,carboxylic_acid
6903,"2,6-dimethoxycyclohexa-2,5-diene-1,4-dione",COC1=CC(=O)C=C(C1=O)OC,595.62,8,"[1, 6, 8]",3,True,CHO,ester
6904,diethyl 2-formamidopropanedioate,CCOC(=O)C(C(=O)OCC)NC=O,597.47,8,"[1, 6, 7, 8]",4,True,CHON,ester
6905,2-(cyclohexylamino)acetic acid,C1CCC(CC1)NCC(=O)O,597.87,8,"[1, 6, 7, 8]",4,True,CHON,carboxylic_acid
6906,phthalic acid,C1=CC=C(C(=C1)C(=O)O)C(=O)O,598.0,8,"[1, 6, 8]",3,True,CHO,aromatic
6907,"3-piperidin-1-ylpropane-1,2-diol",C1CCN(CC1)CC(CO)O,598.95,8,"[1, 6, 7, 8]",4,True,CHON,alcohol
6908,3-amino-4-ethylhexanoic acid,CCC(CC)C(CC(=O)O)N,599.8,8,"[1, 6, 7, 8]",4,True,CHON,carboxylic_acid
6909,"1,5-dimethylbicyclo[3.1.0]hexane-2,3,4-trione",CC12CC1(C(=O)C(=O)C2=O)C,600.06,8,"[1, 6, 8]",3,True,CHO,ketone
6910,2-aminooctanoic acid,CCCCCCC(C(=O)O)N,600.24,8,"[1, 6, 7, 8]",4,True,CHON,carboxylic_acid
6911,8-aminooctanoic acid,C(CCCC(=O)O)CCCN,600.68,8,"[1, 6, 7, 8]",4,True,CHON,carboxylic_acid
6912,"(2Z)-3-methoxy-5-methyl-4-oxohexa-2,5-dienoic acid",CC(=C)C(=O)/C(=C/C(=O)O)/OC,605.04,8,"[1, 6, 8]",3,True,CHO,carboxylic_acid
6913,"1-oxa-4,7,10-triazacyclododecane",C1CNCCOCCNCCN1,605.08,8,"[1, 6, 7, 8]",4,True,CHON,ester
6914,3-hydroxyiminooctan-2-one,CCCCCC(=NO)C(=O)C,605.25,8,"[1, 6, 7, 8]",4,True,CHON,ketone
6915,"2,5-dihydroperoxy-2,5-dimethylhexane",CC(C)(CCC(C)(C)OO)OO,605.38,8,"[1, 6, 8]",3,True,CHO,ester
6916,"bicyclo[3.2.1]octane-2,3,4-trione",C1CC2CC1C(=O)C(=O)C2=O,608.12,8,"[1, 6, 8]",3,True,CHO,ketone
6917,3-aminobicyclo[2.2.1]heptane-2-carboxylic acid,C1CC2CC1C(C2N)C(=O)O,609.09,8,"[1, 6, 7, 8]",4,True,CHON,carboxylic_acid
6918,(Z)-4-tert-butylperoxy-4-oxobut-2-enoic acid,CC(C)(C)OOC(=O)/C=C\C(=O)O,609.72,8,"[1, 6, 8]",3,True,CHO,carboxylic_acid
6919,1-acetylpiperidine-4-carboxylic acid,CC(=O)N1CCC(CC1)C(=O)O,609.74,8,"[1, 6, 7, 8]",4,True,CHON,carboxylic_acid
6920,2H-phthalazin-1-one,C1=CC=C2C(=C1)C=NNC2=O,610.25,8,"[1, 6, 7, 8]",4,True,CHON,aromatic
6921,1-hydroperoxyoctane,CCCCCCCCOO,610.52,8,"[1, 6, 8]",3,True,CHO,ester
6922,"3a,4,7,7a-tetrahydro-4,7-epoxyisoindole-1,3-dione",C1=CC2C3C(C1O2)C(=O)NC3=O,612.76,8,"[1, 6, 7, 8]",4,True,CHON,ester
6923,"2,5-dihydroperoxy-2,5-dimethylhex-3-yne",CC(C)(C#CC(C)(C)OO)OO,614.38,8,"[1, 6, 8]",3,True,CHO,alkyne
6924,2-[2-[2-(2-aminoethoxy)ethoxy]ethoxy]ethanol,C(COCCOCCOCCO)N,614.61,8,"[1, 6, 7, 8]",4,True,CHON,ester
6925,4-(aminomethyl)cyclohexane-1-carboxylic acid,C1CC(CCC1CN)C(=O)O,615.56,8,"[1, 6, 7, 8]",4,True,CHON,carboxylic_acid
6926,(E)-N-carbamoyl-2-propan-2-ylbut-2-enamide,C/C=C(\C(C)C)/C(=O)NC(=O)N,616.68,8,"[1, 6, 7, 8]",4,True,CHON,alkene
6927,2-(tert-butyldiazenyl)butan-2-ol,CCC(C)(N=NC(C)(C)C)O,617.56,8,"[1, 6, 7, 8]",4,True,CHON,alcohol
6928,2-hydroxyoctanoic acid,CCCCCCC(C(=O)O)O,619.89,8,"[1, 6, 8]",3,True,CHO,alcohol
6929,8-hydroxyoctanoic acid,C(CCCC(=O)O)CCCO,620.33,8,"[1, 6, 8]",3,True,CHO,alcohol
6930,2-[4-(2-hydroxyethoxy)but-2-ynoxy]ethanol,C(COCC#CCOCCO)O,620.84,8,"[1, 6, 8]",3,True,CHO,ester
6931,4-(N-hydroxy-C-methylcarbonimidoyl)phenol,CC(=NO)C1=CC=C(C=C1)O,621.87,8,"[1, 6, 7, 8]",4,True,CHON,aromatic
6932,propyl 3-hydroxy-2-(hydroxymethyl)-2-methylpropanoate,CCCOC(=O)C(C)(CO)CO,621.99,8,"[1, 6, 8]",3,True,CHO,ester
6933,"1,4,7,10-tetrazacyclododecane",C1CNCCNCCNCCN1,626.68,8,"[1, 6, 7]",3,True,CHN,amine
6934,"2-N-[2-(1-aminopropan-2-ylamino)ethyl]propane-1,2-diamine",CC(CN)NCCNC(C)CN,627.16,8,"[1, 6, 7]",3,True,CHN,amine
6935,"1-N-[2-(2-aminopropylamino)ethyl]propane-1,2-diamine",CC(CNCCNCC(C)N)N,627.16,8,"[1, 6, 7]",3,True,CHN,amine
6936,"2-N-[2-(2-aminopropylamino)ethyl]propane-1,2-diamine",CC(CN)NCCNCC(C)N,627.16,8,"[1, 6, 7]",3,True,CHN,amine
6937,"N'-[2-(3-aminopropylamino)ethyl]propane-1,3-diamine",C(CN)CNCCNCCCN,628.04,8,"[1, 6, 7]",3,True,CHN,amine
6938,"N,N-bis(2-hydroxyethyl)-2-methylprop-2-enamide",CC(=C)C(=O)N(CCO)CCO,629.87,8,"[1, 6, 7, 8]",4,True,CHON,amide
6939,"5-methyl-5-(2-methylpropyl)imidazolidine-2,4-dione",CC(C)CC1(C(=O)NC(=O)N1)C,630.46,8,"[1, 6, 7, 8]",4,True,CHON,amide
6940,3-[2-(2-cyanoethoxy)ethoxy]propanenitrile,C(COCCOCCC#N)C#N,631.64,8,"[1, 6, 7, 8]",4,True,CHON,ester
6941,6-acetamidohexanoic acid,CC(=O)NCCCCCC(=O)O,632.19,8,"[1, 6, 7, 8]",4,True,CHON,carboxylic_acid
6942,"5-acetyl-2-hydroxy-2,5-dimethyloxolan-3-one",CC(=O)C1(CC(=O)C(O1)(C)O)C,634.55,8,"[1, 6, 8]",3,True,CHO,ester
6943,2-[bis(2-hydroxyethyl)amino]ethyl acetate,CC(=O)OCCN(CCO)CCO,637.66,8,"[1, 6, 7, 8]",4,True,CHON,ester
6944,"2,2-dimethyl-4-oxo-3H-pyran-6-carboxylic acid",CC1(CC(=O)C=C(O1)C(=O)O)C,646.85,8,"[1, 6, 8]",3,True,CHO,carboxylic_acid
6945,propan-2-yl (NE)-N-propan-2-yloxycarbonyliminocarbamate,CC(C)OC(=O)/N=N/C(=O)OC(C)C,647.4,8,"[1, 6, 7, 8]",4,True,CHON,ester
6946,"cyclohexane-1,4-dicarboxamide",C1CC(CCC1C(=O)N)C(=O)N,650.32,8,"[1, 6, 7, 8]",4,True,CHON,amide
6947,"1,3-diazaspiro[4.5]decane-2,4-dione",C1CCC2(CC1)C(=O)NC(=O)N2,650.85,8,"[1, 6, 7, 8]",4,True,CHON,amide
6948,5-acetamido-4-oxohex-5-enamide,CC(=O)NC(=C)C(=O)CCC(=O)N,663.51,8,"[1, 6, 7, 8]",4,True,CHON,amide
6949,1-[2-(2-hydroxypropylamino)ethylamino]propan-2-ol,CC(CNCCNCC(C)O)O,666.46,8,"[1, 6, 7, 8]",4,True,CHON,alcohol
6950,"2,4,6,8,13-pentazatricyclo[7.3.1.05,13]trideca-1(12),2,4,6,8,10-hexaene",C1=CC2=NC=NC3=NC=NC(=C1)N23,666.82,8,"[1, 6, 7]",3,True,CHN,alkene
6951,"cyclohexane-1,4-dicarboxylic acid",C1CC(CCC1C(=O)O)C(=O)O,669.0,8,"[1, 6, 8]",3,True,CHO,alcohol
6952,"3-acetyl-5-hydroxy-4,5-dimethyl-1H-pyrrol-2-one",CC1=C(C(=O)NC1(C)O)C(=O)C,669.7,8,"[1, 6, 7, 8]",4,True,CHON,amide
6953,"3-hydroxy-2-methoxy-5-methylcyclohexa-2,5-diene-1,4-dione",CC1=CC(=O)C(=C(C1=O)O)OC,670.36,8,"[1, 6, 8]",3,True,CHO,ester
6954,"2,2-diethylbutanedioic acid",CCC(CC)(CC(=O)O)C(=O)O,670.43,8,"[1, 6, 8]",3,True,CHO,alcohol
6955,1-[2-hydroxyethyl(2-hydroxypropyl)amino]propan-2-ol,CC(CN(CCO)CC(C)O)O,670.74,8,"[1, 6, 7, 8]",4,True,CHON,alcohol
6956,"3-(dimethylamino)-2,5-dihydroxy-5-methylcyclopent-2-en-1-one",CC1(CC(=C(C1=O)O)N(C)C)O,671.9,8,"[1, 6, 7, 8]",4,True,CHON,ketone
6957,"2,3-diethylbutanedioic acid",CCC(C(CC)C(=O)O)C(=O)O,672.78,8,"[1, 6, 8]",3,True,CHO,alcohol
6958,"2,5-dimethylhexanedioic acid",CC(CCC(C)C(=O)O)C(=O)O,672.78,8,"[1, 6, 8]",3,True,CHO,alcohol
6959,2-pentylpropanedioic acid,CCCCCC(C(=O)O)C(=O)O,673.22,8,"[1, 6, 8]",3,True,CHO,alcohol
6960,3-propylpentanedioic acid,CCCC(CC(=O)O)CC(=O)O,673.22,8,"[1, 6, 8]",3,True,CHO,alcohol
6961,(E)-2-cyano-3-morpholin-4-ylprop-2-enamide,C1COCCN1/C=C(\C#N)/C(=O)N,674.5,8,"[1, 6, 7, 8]",4,True,CHON,ester
6962,"2-(hydroxymethyl)-2-(prop-2-enoxymethyl)propane-1,3-diol",C=CCOCC(CO)(CO)CO,675.05,8,"[1, 6, 8]",3,True,CHO,ester
6963,"(2E,4E)-2,5-dimethylhexa-2,4-dienedioic acid",C/C(=C\C=C(\C(=O)O)/C)/C(=O)O,681.74,8,"[1, 6, 8]",3,True,CHO,alkene
6964,3-(2-aminopropyl)phenol,CC(CC1=CC(=CC=C1)O)N,282.65,9,"[1, 6, 7, 8]",4,True,CHON,alcohol
6965,2-ethylbutyl prop-2-enoate,CCC(CC)COC(=O)C=C,283.15,9,"[1, 6, 8]",3,True,CHO,ester
6966,"2-amino-9-(3,4-dihydroxybutyl)-1H-purin-6-one",C1=NC2=C(N1CCC(CO)O)N=C(NC2=O)N,303.25,9,"[1, 6, 7, 8]",4,True,CHON,aromatic
6967,3-(ethylamino)-4-methylphenol,CCNC1=C(C=CC(=C1)O)C,309.25,9,"[1, 6, 7, 8]",4,True,CHON,alcohol
6968,"2,3-dimethylheptan-3-ol",CCCCC(C)(C(C)C)O,315.15,9,"[1, 6, 8]",3,True,CHO,alcohol
6969,2-butan-2-yl-3-methoxypyrazine,CCC(C)C1=NC=CN=C1OC,323.15,9,"[1, 6, 7, 8]",4,True,CHON,ester
6970,dibutylcyanamide,CCCCN(CCCC)C#N,327.15,9,"[1, 6, 7]",3,True,CHN,amine
6971,(2-methylcyclohexyl) acetate,CC1CCCCC1OC(=O)C,328.15,9,"[1, 6, 8]",3,True,CHO,ester
6972,"2,6-dimethylheptane-3,5-dione",CC(C)C(=O)CC(=O)C(C)C,339.15,9,"[1, 6, 8]",3,True,CHO,ketone
6973,"3-methylidene-3a,4,5,6,7,7a-hexahydro-1-benzofuran-2-one",C=C1C2CCCCC2OC1=O,343.15,9,"[1, 6, 8]",3,True,CHO,ester
6974,2-bicyclo[2.2.1]heptanyl acetate,CC(=O)OC1CC2CCC1C2,346.65,9,"[1, 6, 8]",3,True,CHO,ester
6975,4-pent-4-ynylmorpholine,C#CCCCN1CCOCC1,349.15,9,"[1, 6, 7, 8]",4,True,CHON,ester
6976,N-methyloctan-1-amine,CCCCCCCCNC,351.65,9,"[1, 6, 7]",3,True,CHN,amine
6977,"N,N-bis(prop-2-ynyl)prop-2-yn-1-amine",C#CCN(CC#C)CC#C,355.15,9,"[1, 6, 7]",3,True,CHN,alkyne
6978,1-(2-prop-2-enoxyethoxy)butane,CCCCOCCOCC=C,356.65,9,"[1, 6, 8]",3,True,CHO,ester
6979,"2-isocyanato-1,3-dimethylbenzene",CC1=C(C(=CC=C1)C)N=C=O,356.65,9,"[1, 6, 7, 8]",4,True,CHON,aromatic
6980,1-(2-bicyclo[2.2.1]hept-5-enyl)ethanone,CC(=O)C1CC2CC1C=C2,357.65,9,"[1, 6, 8]",3,True,CHO,alkene
6981,1-nitroso-1-octylurea,CCCCCCCCN(C(=O)N)N=O,358.15,9,"[1, 6, 7, 8]",4,True,CHON,amide
6982,3-cyclohexylpropanal,C1CCC(CC1)CCC=O,360.15,9,"[1, 6, 8]",3,True,CHO,aldehyde
6983,1-(1H-benzimidazol-2-yl)-3-methylurea,CNC(=O)NC1=NC2=CC=CC=C2N1,361.55,9,"[1, 6, 7, 8]",4,True,CHON,aromatic
6984,"2,2-dimethylheptan-1-ol",CCCCCC(C)(C)CO,361.65,9,"[1, 6, 8]",3,True,CHO,alcohol
6985,1-ethynyl-2-methoxybenzene,COC1=CC=CC=C1C#C,365.15,9,"[1, 6, 8]",3,True,CHO,ester