,Name,SMILES,Tb,C Atom,Atom,Count Unique Atom,Pass Screen,Atom2,Func. Group
8642,7-ethyl-1H-indole,CCC1=CC=CC2=C1NC=C2,503.15,10,"[1, 6, 7]",3,True,CHN,aromatic
8643,"N-[3-(dimethylamino)propyl]-N',N'-dimethylpropane-1,3-diamine",CN(C)CCCNCCCN(C)C,503.45,10,"[1, 6, 7]",3,True,CHN,amine
8644,"(2Z)-2-(3,3-dimethylcyclohexylidene)acetaldehyde",CC1(CCC/C(=C/C=O)/C1)C,503.49,10,"[1, 6, 8]",3,True,CHO,alkene
8645,"1-methyl-4-propan-2-yl-2,3-dioxabicyclo[2.2.2]oct-5-ene",CC(C)C12CCC(C=C1)(OO2)C,503.52,10,"[1, 6, 8]",3,True,CHO,alkene
8646,(E)-4-cyclohexylbut-3-en-2-one,CC(=O)/C=C/C1CCCCC1,504.15,10,"[1, 6, 8]",3,True,CHO,alkene
8647,"1,3-ditert-butylaziridin-2-one",CC(C)(C)C1C(=O)N1C(C)(C)C,504.67,10,"[1, 6, 7, 8]",4,True,CHON,amide
8648,"4,7,7-trimethylbicyclo[4.1.0]heptan-3-one",CC1CC2C(C2(C)C)CC1=O,504.87,10,"[1, 6, 8]",3,True,CHO,ketone
8649,N-(2-methylpropyl)aniline,CC(C)CNC1=CC=CC=C1,505.15,10,"[1, 6, 7]",3,True,CHN,aromatic
8650,"11-oxabicyclo[4.4.1]undeca-1,3,5,7,9-pentaene",C1=CC=C2C=CC=CC(=C1)O2,505.28,10,"[1, 6, 8]",3,True,CHO,ester
8651,tert-butyl 2-ethylbutaneperoxoate,CCC(CC)C(=O)OOC(C)(C)C,505.37,10,"[1, 6, 8]",3,True,CHO,ester
8652,2-butoxyphenol,CCCCOC1=CC=CC=C1O,505.65,10,"[1, 6, 8]",3,True,CHO,ester
8653,"2,6,6-trimethylcyclohexene-1-carbaldehyde",CC1=C(C(CCC1)(C)C)C=O,505.97,10,"[1, 6, 8]",3,True,CHO,alkene
8654,"1,3,4-trimethylcyclohex-3-ene-1-carbaldehyde",CC1=C(CC(CC1)(C)C=O)C,505.97,10,"[1, 6, 8]",3,True,CHO,alkene
8655,2-cyclohexylethyl acetate,CC(=O)OCCC1CCCCC1,506.17,10,"[1, 6, 8]",3,True,CHO,ester
8656,"1-(1,4-dimethylcyclohex-3-en-1-yl)ethanone",CC1=CCC(CC1)(C)C(=O)C,506.2,10,"[1, 6, 8]",3,True,CHO,alkene
8657,(3-ethylphenyl) acetate,CCC1=CC(=CC=C1)OC(=O)C,507.15,10,"[1, 6, 8]",3,True,CHO,ester
8658,2-methoxy-4-propylcyclohexan-1-ol,CCCC1CCC(C(C1)OC)O,507.15,10,"[1, 6, 8]",3,True,CHO,ester
8659,"6-methyl-3,4-dihydro-2H-chromene",CC1=CC2=C(C=C1)OCCC2,507.15,10,"[1, 6, 8]",3,True,CHO,ester
8660,"4-prop-2-enylhepta-1,6-dien-4-ol",C=CCC(CC=C)(CC=C)O,507.39,10,"[1, 6, 8]",3,True,CHO,alkene
8661,3-methylnon-1-yn-3-ol,CCCCCCC(C)(C#C)O,507.47,10,"[1, 6, 8]",3,True,CHO,alkyne
8662,"(3,4-dimethylphenyl) acetate",CC1=C(C=C(C=C1)OC(=O)C)C,508.15,10,"[1, 6, 8]",3,True,CHO,ester
8663,"N,N-bis(oxiran-2-ylmethyl)butan-1-amine",CCCCN(CC1CO1)CC2CO2,508.22,10,"[1, 6, 7, 8]",4,True,CHON,ester
8664,6-methyl-3-propan-2-ylcyclohex-2-en-1-one,CC1CCC(=CC1=O)C(C)C,508.65,10,"[1, 6, 8]",3,True,CHO,alkene
8665,"6,6-dimethyl-2-methylidenebicyclo[3.1.1]heptan-3-one",CC1(C2CC1C(=C)C(=O)C2)C,508.7,10,"[1, 6, 8]",3,True,CHO,alkene
8666,8-methyl-1-oxaspiro[4.5]decan-2-one,CC1CCC2(CC1)CCC(=O)O2,508.88,10,"[1, 6, 8]",3,True,CHO,ester
8667,"(2E)-3,7-dimethylocta-2,6-dien-1-amine",CC(=CCC/C(=C/CN)/C)C,509.01,10,"[1, 6, 7]",3,True,CHN,alkene
8668,2-butoxyethyl butanoate,CCCCOCCOC(=O)CCC,509.04,10,"[1, 6, 8]",3,True,CHO,ester
8669,(4Z)-cyclodec-4-en-1-one,C1CC/C=C\CCC(=O)CC1,509.15,10,"[1, 6, 8]",3,True,CHO,alkene
8670,"2-methyl-2,3-dihydroinden-1-one",CC1CC2=CC=CC=C2C1=O,509.15,10,"[1, 6, 8]",3,True,CHO,aromatic
8671,4-propylbenzaldehyde,CCCC1=CC=C(C=C1)C=O,509.65,10,"[1, 6, 8]",3,True,CHO,aromatic
8672,"1,7,7-trimethylbicyclo[2.2.1]heptan-2-amine",CC1(C2CCC1(C(C2)N)C)C,509.82,10,"[1, 6, 7]",3,True,CHN,amine
8673,4-ethyloct-1-yn-3-ol,CCCCC(CC)C(C#C)O,509.82,10,"[1, 6, 8]",3,True,CHO,alkyne
8674,"2-(1,3-dimethylimidazolidin-2-ylidene)-1,3-dimethylimidazolidine",CN1CCN(C1=C2N(CCN2C)C)C,510.1,10,"[1, 6, 7]",3,True,CHN,alkene
8675,"(2,5-dimethylphenyl) acetate",CC1=CC(=C(C=C1)C)OC(=O)C,510.15,10,"[1, 6, 8]",3,True,CHO,ester
8676,"(3,5-dimethylphenyl) acetate",CC1=CC(=CC(=C1)OC(=O)C)C,510.15,10,"[1, 6, 8]",3,True,CHO,ester
8677,ethyl cycloheptanecarboxylate,CCOC(=O)C1CCCCCC1,510.44,10,"[1, 6, 8]",3,True,CHO,ester
8678,butyl 3-(azetidin-1-yl)propanoate,CCCCOC(=O)CCN1CCC1,510.47,10,"[1, 6, 7, 8]",4,True,CHON,ester
8679,"2,4,6-trimethylhepta-1,6-dien-4-ol",CC(=C)CC(C)(CC(=C)C)O,510.47,10,"[1, 6, 8]",3,True,CHO,alkene
8680,2-methyl-6-methylideneoct-7-en-2-ol,CC(C)(CCCC(=C)C=C)O,510.59,10,"[1, 6, 8]",3,True,CHO,alkene
8681,"3,7-dimethylocta-1,7-dien-3-ol",CC(=C)CCCC(C)(C=C)O,510.59,10,"[1, 6, 8]",3,True,CHO,alkene
8682,2-methyl-4-propan-2-ylcyclohexan-1-one,CC1CC(CCC1=O)C(C)C,510.66,10,"[1, 6, 8]",3,True,CHO,ketone
8683,dec-9-yn-1-ol,C#CCCCCCCCCO,510.7,10,"[1, 6, 8]",3,True,CHO,alkyne
8684,5-methyl-2-propan-2-ylcyclohexan-1-amine,CC1CCC(C(C1)N)C(C)C,510.7,10,"[1, 6, 7]",3,True,CHN,amine
8685,"4-propylhepta-1,6-dien-4-ol",CCCC(CC=C)(CC=C)O,510.71,10,"[1, 6, 8]",3,True,CHO,alkene
8686,3-methyl-4-propan-2-ylphenol,CC1=C(C=CC(=C1)O)C(C)C,511.15,10,"[1, 6, 8]",3,True,CHO,aromatic
8687,"6,7,8,9-tetrahydro-5H-cyclohepta[b]pyridine",C1CCC2=C(CC1)N=CC=C2,511.15,10,"[1, 6, 7]",3,True,CHN,aromatic
8688,4-(2-methylpropyl)aniline,CC(C)CC1=CC=C(C=C1)N,511.15,10,"[1, 6, 7]",3,True,CHN,aromatic
8689,"1,2,2,6,6-pentamethylpiperidin-4-ol",CC1(CC(CC(N1C)(C)C)O)C,511.15,10,"[1, 6, 7, 8]",4,True,CHON,alcohol
8690,2-methyl-6-propan-2-ylaniline,CC1=C(C(=CC=C1)C(C)C)N,511.15,10,"[1, 6, 7]",3,True,CHN,aromatic
8691,"3,7-dimethyloct-6-en-1-yn-3-ol",CC(=CCCC(C)(C#C)O)C,511.51,10,"[1, 6, 8]",3,True,CHO,alkene
8692,(8-methyl-8-azabicyclo[3.2.1]octan-3-yl) acetate,CC(=O)OC1CC2CCC(C1)N2C,512.14,10,"[1, 6, 7, 8]",4,True,CHON,ester
8693,3-tert-butylcyclohexan-1-one,CC(C)(C)C1CCCC(=O)C1,512.54,10,"[1, 6, 8]",3,True,CHO,ketone
8694,2-tert-butylcyclohexan-1-one,CC(C)(C)C1CCCCC1=O,512.54,10,"[1, 6, 8]",3,True,CHO,ketone
8695,4-tert-butylcyclohexan-1-amine,CC(C)(C)C1CCC(CC1)N,512.58,10,"[1, 6, 7]",3,True,CHN,amine
8696,"methyl 3,5-dimethylbenzoate",CC1=CC(=CC(=C1)C(=O)OC)C,512.65,10,"[1, 6, 8]",3,True,CHO,ester
8697,"2,6-dimethylocta-1,7-dien-3-ol",CC(CCC(C(=C)C)O)C=C,512.94,10,"[1, 6, 8]",3,True,CHO,alkene
8698,"tricyclo[5.2.1.02,6]dec-3-en-8-ol",C1C=CC2C1C3CC2CC3O,513.15,10,"[1, 6, 8]",3,True,CHO,alkene
8699,"2,3-dimethyl-2,3-dihydro-1H-indole",CC1C(NC2=CC=CC=C12)C,513.15,10,"[1, 6, 7]",3,True,CHN,aromatic
8700,"8,8-dimethyl-6,10-dioxaspiro[4.5]decane",CC1(COC2(CCCC2)OC1)C,513.34,10,"[1, 6, 8]",3,True,CHO,ester
8701,"N',N'-dibutylethane-1,2-diamine",CCCCN(CCCC)CCN,513.37,10,"[1, 6, 7]",3,True,CHN,amine
8702,"3,5,5-trimethyl-2-methylidenehexan-1-ol",CC(CC(C)(C)C)C(=C)CO,513.47,10,"[1, 6, 8]",3,True,CHO,alkene
8703,"3,7-dimethyloct-1-en-3-ol",CC(C)CCCC(C)(C=C)O,513.59,10,"[1, 6, 8]",3,True,CHO,alkene
8704,"2,6-dimethyloct-7-en-2-ol",CC(CCCC(C)(C)O)C=C,513.59,10,"[1, 6, 8]",3,True,CHO,alkene
8705,"3,3-dimethyl-2-methylidenebicyclo[2.2.1]heptan-1-amine",CC1(C2CCC(C2)(C1=C)N)C,513.65,10,"[1, 6, 7]",3,True,CHN,alkene
8706,"2,3,5,5-tetramethylhexan-3-ol",CC(C)C(C)(CC(C)(C)C)O,513.68,10,"[1, 6, 8]",3,True,CHO,alcohol
8707,"2,2,3,5-tetramethylhexan-3-ol",CC(C)CC(C)(C(C)(C)C)O,513.68,10,"[1, 6, 8]",3,True,CHO,alcohol
8708,"3,3,5,5-tetramethylhexan-2-ol",CC(C(C)(C)CC(C)(C)C)O,513.68,10,"[1, 6, 8]",3,True,CHO,alcohol
8709,"2,3,3-trimethyl-2-propan-2-ylbutan-1-ol",CC(C)C(C)(CO)C(C)(C)C,513.68,10,"[1, 6, 8]",3,True,CHO,alcohol
8710,3-methylnon-1-en-3-ol,CCCCCCC(C)(C=C)O,514.03,10,"[1, 6, 8]",3,True,CHO,alkene
8711,"3-ethyl-5,5-dimethylhexan-3-ol",CCC(CC)(CC(C)(C)C)O,514.12,10,"[1, 6, 8]",3,True,CHO,alcohol
8712,decyl nitrite,CCCCCCCCCCON=O,514.22,10,"[1, 6, 7, 8]",4,True,CHON,ester
8713,"tricyclo[5.2.1.02,6]deca-4,8-dien-3-one",C1C2C=CC1C3C2C=CC3=O,514.36,10,"[1, 6, 8]",3,True,CHO,alkene
8714,"tricyclo[3.3.2.02,8]deca-6,9-dien-3-one",C1C2C=CC3C(C3C1=O)C=C2,514.36,10,"[1, 6, 8]",3,True,CHO,alkene
8715,2-methylidene-5-propan-2-ylcyclohexan-1-one,CC(C)C1CCC(=C)C(=O)C1,514.49,10,"[1, 6, 8]",3,True,CHO,alkene
8716,cyclooctyl acetate,CC(=O)OC1CCCCCCC1,514.71,10,"[1, 6, 8]",3,True,CHO,ester
8717,"(5E)-3,7-dimethylocta-1,5,7-trien-3-ol",CC(=C)/C=C/CC(C)(C=C)O,514.75,10,"[1, 6, 8]",3,True,CHO,alkene
8718,3-[2-[2-(2-methoxyethoxy)ethoxy]ethoxy]prop-1-ene,COCCOCCOCCOCC=C,514.76,10,"[1, 6, 8]",3,True,CHO,ester
8719,ethyl 2-(cyclohexen-1-yl)acetate,CCOC(=O)CC1=CCCCC1,514.98,10,"[1, 6, 8]",3,True,CHO,ester
8720,"1,3,8,10-tetrazatricyclo[8.4.0.03,8]tetradeca-5,12-diene",C1C=CCN2N1CN3CC=CCN3C2,514.98,10,"[1, 6, 7]",3,True,CHN,alkene
8721,"5-[(Z)-prop-1-enyl]-1,3-benzodioxole",C/C=C\C1=CC2=C(C=C1)OCO2,515.05,10,"[1, 6, 8]",3,True,CHO,ester
8722,4-methyl-6-(oxiran-2-yl)heptan-3-one,CCC(=O)C(C)CC(C)C1CO1,515.08,10,"[1, 6, 8]",3,True,CHO,ester
8723,"3-methyl-2-phenyl-1,3-oxazolidine",CN1CCOC1C2=CC=CC=C2,515.15,10,"[1, 6, 7, 8]",4,True,CHON,ester
8724,"tricyclo[5.2.1.02,6]dec-4-en-3-one",C1CC2CC1C3C2C(=O)C=C3,515.2,10,"[1, 6, 8]",3,True,CHO,alkene
8725,2-butan-2-ylcyclohexan-1-one,CCC(C)C1CCCCC1=O,515.33,10,"[1, 6, 8]",3,True,CHO,ketone
8726,2-[(E)-pent-2-enyl]cyclopentan-1-one,CC/C=C/CC1CCCC1=O,515.66,10,"[1, 6, 8]",3,True,CHO,alkene
8727,ethyl 2-azabicyclo[2.2.2]oct-5-ene-2-carboxylate,CCOC(=O)N1CC2CCC1C=C2,515.97,10,"[1, 6, 7, 8]",4,True,CHON,ester
8728,"2,4,4,5-tetramethylhexan-3-ol",CC(C)C(C(C)(C)C(C)C)O,516.03,10,"[1, 6, 8]",3,True,CHO,alcohol
8729,"3,4-dimethyl-3-propan-2-ylpentan-2-ol",CC(C)C(C)(C(C)C)C(C)O,516.03,10,"[1, 6, 8]",3,True,CHO,alcohol
8730,adamantan-2-one,C1C2CC3CC1CC(C2)C3=O,516.04,10,"[1, 6, 8]",3,True,CHO,ketone
8731,"tricyclo[5.2.1.02,6]decan-8-one",C1CC2C(C1)C3CC2CC3=O,516.04,10,"[1, 6, 8]",3,True,CHO,ketone
8732,adamantan-2-amine,C1C2CC3CC1CC(C2)C3N,516.08,10,"[1, 6, 7]",3,True,CHN,amine
8733,2-phenoxyethyl acetate,CC(=O)OCCOC1=CC=CC=C1,516.15,10,"[1, 6, 8]",3,True,CHO,ester
8734,3-methyl-6-prop-1-en-2-ylcyclohex-2-en-1-one,CC1=CC(=O)C(CC1)C(=C)C,516.47,10,"[1, 6, 8]",3,True,CHO,alkene
8735,"4,6,6-trimethylheptan-2-ol",CC(CC(C)O)CC(C)(C)C,516.47,10,"[1, 6, 8]",3,True,CHO,alcohol
8736,"2,3,6-trimethylheptan-3-ol",CC(C)CCC(C)(C(C)C)O,516.47,10,"[1, 6, 8]",3,True,CHO,alcohol
8737,"2,2,5-trimethylheptan-4-ol",CCC(C)C(CC(C)(C)C)O,516.47,10,"[1, 6, 8]",3,True,CHO,alcohol
8738,"2,2,6-trimethylheptan-3-ol",CC(C)CCC(C(C)(C)C)O,516.47,10,"[1, 6, 8]",3,True,CHO,alcohol
8739,"2,2,6-trimethylheptan-4-ol",CC(C)CC(CC(C)(C)C)O,516.47,10,"[1, 6, 8]",3,True,CHO,alcohol
8740,"2,4,5-trimethylheptan-4-ol",CCC(C)C(C)(CC(C)C)O,516.47,10,"[1, 6, 8]",3,True,CHO,alcohol
8741,"2,4,6-trimethylheptan-2-ol",CC(C)CC(C)CC(C)(C)O,516.47,10,"[1, 6, 8]",3,True,CHO,alcohol
8742,"4-ethyl-2,4-dimethylhexan-3-ol",CCC(C)(CC)C(C(C)C)O,516.47,10,"[1, 6, 8]",3,True,CHO,alcohol
8743,"4,4-dimethyl-3-propan-2-ylpentan-1-ol",CC(C)C(CCO)C(C)(C)C,516.47,10,"[1, 6, 8]",3,True,CHO,alcohol
8744,"5,6-dimethylidenebicyclo[2.2.2]octan-2-one",C=C1C2CCC(C1=C)C(=O)C2,516.56,10,"[1, 6, 8]",3,True,CHO,alkene
8745,ethyl N-methyl-N-phenylcarbamate,CCOC(=O)N(C)C1=CC=CC=C1,516.65,10,"[1, 6, 7, 8]",4,True,CHON,ester
8746,"3,7-dimethyloct-7-en-1-ol",CC(CCCC(=C)C)CCO,516.7,10,"[1, 6, 8]",3,True,CHO,alkene
8747,ethyl 1-azabicyclo[2.2.2]octane-2-carboxylate,CCOC(=O)C1CC2CCN1CC2,516.81,10,"[1, 6, 7, 8]",4,True,CHON,ester
8748,"2,6-dimethyloctan-2-ol",CCC(C)CCCC(C)(C)O,516.91,10,"[1, 6, 8]",3,True,CHO,alcohol
8749,"2,4-dimethyloctan-2-ol",CCCCC(C)CC(C)(C)O,516.91,10,"[1, 6, 8]",3,True,CHO,alcohol
8750,"3,4-diethylhexan-3-ol",CCC(CC)C(CC)(CC)O,516.91,10,"[1, 6, 8]",3,True,CHO,alcohol
8751,"2,2-dimethyloctan-3-ol",CCCCCC(C(C)(C)C)O,516.91,10,"[1, 6, 8]",3,True,CHO,alcohol
8752,"2,4-dimethyloctan-4-ol",CCCCC(C)(CC(C)C)O,516.91,10,"[1, 6, 8]",3,True,CHO,alcohol
8753,"2,7-dimethyloctan-2-ol",CC(C)CCCCC(C)(C)O,516.91,10,"[1, 6, 8]",3,True,CHO,alcohol
8754,"3,5-dimethyloctan-3-ol",CCCC(C)CC(C)(CC)O,516.91,10,"[1, 6, 8]",3,True,CHO,alcohol
8755,"4,6-dimethyloctan-4-ol",CCCC(C)(CC(C)CC)O,516.91,10,"[1, 6, 8]",3,True,CHO,alcohol
8756,"3,4-dimethyloctan-4-ol",CCCCC(C)(C(C)CC)O,516.91,10,"[1, 6, 8]",3,True,CHO,alcohol
8757,"1,1-bis(2-methoxyethoxy)-2-methylpropane",CC(C)C(OCCOC)OCCOC,517.2,10,"[1, 6, 8]",3,True,CHO,ester
8758,1-cyclohexyl-2-methylpropan-2-amine,CC(C)(CC1CCCCC1)N,517.25,10,"[1, 6, 7]",3,True,CHN,amine
8759,2-methylnonan-2-ol,CCCCCCCC(C)(C)O,517.35,10,"[1, 6, 8]",3,True,CHO,alcohol
8760,3-methylnonan-3-ol,CCCCCCC(C)(CC)O,517.35,10,"[1, 6, 8]",3,True,CHO,alcohol
8761,4-methylnonan-4-ol,CCCCCC(C)(CCC)O,517.35,10,"[1, 6, 8]",3,True,CHO,alcohol
8762,4-ethyloctan-4-ol,CCCCC(CC)(CCC)O,517.35,10,"[1, 6, 8]",3,True,CHO,alcohol
8763,"2-methyl-6-methylideneocta-2,7-dien-4-ol",CC(=CC(CC(=C)C=C)O)C,517.42,10,"[1, 6, 8]",3,True,CHO,alkene
8764,ethyl 2-cyclohexylideneacetate,CCOC(=O)C=C1CCCCC1,517.48,10,"[1, 6, 8]",3,True,CHO,ester
8765,"3-ethenyl-2,5-dimethylhex-4-en-2-ol",CC(=CC(C=C)C(C)(C)O)C,517.63,10,"[1, 6, 8]",3,True,CHO,alkene
8766,"3,3,6-trimethylhepta-1,5-dien-4-ol",CC(=CC(C(C)(C)C=C)O)C,517.63,10,"[1, 6, 8]",3,True,CHO,alkene
8767,"1,1-bis(2-methoxyethoxy)butane",CCCC(OCCOC)OCCOC,517.64,10,"[1, 6, 8]",3,True,CHO,ester
8768,"(5E)-2,6-dimethylocta-5,7-dien-2-ol",C/C(=C\CCC(C)(C)O)/C=C,518.07,10,"[1, 6, 8]",3,True,CHO,alkene
8769,1-ethoxy-2-[2-(2-ethoxyethoxy)ethoxy]ethane,CCOCCOCCOCCOCC,518.08,10,"[1, 6, 8]",3,True,CHO,ester
8770,ethyl N-(4-methylphenyl)carbamate,CCOC(=O)NC1=CC=C(C=C1)C,518.15,10,"[1, 6, 7, 8]",4,True,CHON,ester
8771,2-methyl-3-phenylpropan-1-ol,CC(CC1=CC=CC=C1)CO,518.15,10,"[1, 6, 8]",3,True,CHO,aromatic
8772,ethyl (E)-3-pyrrolidin-1-ylbut-2-enoate,CCOC(=O)/C=C(\C)/N1CCCC1,518.78,10,"[1, 6, 7, 8]",4,True,CHON,ester
8773,"3,7-dimethyloctan-2-ol",CC(C)CCCC(C)C(C)O,519.26,10,"[1, 6, 8]",3,True,CHO,alcohol
8774,"3,6-dimethyloctan-4-ol",CCC(C)CC(C(C)CC)O,519.26,10,"[1, 6, 8]",3,True,CHO,alcohol
8775,"2,5-dimethyloctan-4-ol",CCCC(C)C(CC(C)C)O,519.26,10,"[1, 6, 8]",3,True,CHO,alcohol
8776,5-ethyl-4-methylheptan-3-ol,CCC(CC)C(C)C(CC)O,519.26,10,"[1, 6, 8]",3,True,CHO,alcohol
8777,5-methyl-2-propan-2-ylcyclohex-2-en-1-one,CC1CC=C(C(=O)C1)C(C)C,519.47,10,"[1, 6, 8]",3,True,CHO,alkene
8778,8-methylnonan-2-ol,CC(C)CCCCCC(C)O,519.7,10,"[1, 6, 8]",3,True,CHO,alcohol
8779,"2,7-dimethyloctan-1-ol",CC(C)CCCCC(C)CO,519.7,10,"[1, 6, 8]",3,True,CHO,alcohol
8780,4-ethyloctan-3-ol,CCCCC(CC)C(CC)O,519.7,10,"[1, 6, 8]",3,True,CHO,alcohol
8781,6-ethyloctan-3-ol,CCC(CC)CCC(CC)O,519.7,10,"[1, 6, 8]",3,True,CHO,alcohol
8782,7-methylnonan-4-ol,CCCC(CCC(C)CC)O,519.7,10,"[1, 6, 8]",3,True,CHO,alcohol
8783,2-methylnonan-5-ol,CCCCC(CCC(C)C)O,519.7,10,"[1, 6, 8]",3,True,CHO,alcohol
8784,3-methylnonan-2-ol,CCCCCCC(C)C(C)O,519.7,10,"[1, 6, 8]",3,True,CHO,alcohol
8785,"2,6-dimethyloctan-1-ol",CCC(C)CCCC(C)CO,519.7,10,"[1, 6, 8]",3,True,CHO,alcohol
8786,3-ethyloctan-4-ol,CCCCC(C(CC)CC)O,519.7,10,"[1, 6, 8]",3,True,CHO,alcohol
8787,6-methylnonan-2-ol,CCCC(C)CCCC(C)O,519.7,10,"[1, 6, 8]",3,True,CHO,alcohol
8788,7-methylnonan-2-ol,CCC(C)CCCCC(C)O,519.7,10,"[1, 6, 8]",3,True,CHO,alcohol
8789,"4,5-dimethyloctan-1-ol",CCCC(C)C(C)CCCO,519.7,10,"[1, 6, 8]",3,True,CHO,alcohol
8790,"4,6-dimethyloctan-1-ol",CCC(C)CC(C)CCCO,519.7,10,"[1, 6, 8]",3,True,CHO,alcohol
8791,"4,7-dimethyloctan-1-ol",CC(C)CCC(C)CCCO,519.7,10,"[1, 6, 8]",3,True,CHO,alcohol
8792,5-methylnonan-3-ol,CCCCC(C)CC(CC)O,519.7,10,"[1, 6, 8]",3,True,CHO,alcohol
8793,5-methylnonan-4-ol,CCCCC(C)C(CCC)O,519.7,10,"[1, 6, 8]",3,True,CHO,alcohol
8794,5-methylnonan-2-ol,CCCCC(C)CCC(C)O,519.7,10,"[1, 6, 8]",3,True,CHO,alcohol
8795,4-methylnonan-5-ol,CCCCC(C(C)CCC)O,519.7,10,"[1, 6, 8]",3,True,CHO,alcohol
8796,5-methylnonan-1-ol,CCCCC(C)CCCCO,520.14,10,"[1, 6, 8]",3,True,CHO,alcohol
8797,2-ethyloctan-1-ol,CCCCCCC(CC)CO,520.14,10,"[1, 6, 8]",3,True,CHO,alcohol
8798,3-methylnonan-1-ol,CCCCCCC(C)CCO,520.14,10,"[1, 6, 8]",3,True,CHO,alcohol
8799,7-methylnonan-1-ol,CCC(C)CCCCCCO,520.14,10,"[1, 6, 8]",3,True,CHO,alcohol
8800,3-ethyloctan-1-ol,CCCCCC(CC)CCO,520.14,10,"[1, 6, 8]",3,True,CHO,alcohol
8801,"ethyl 3-oxatricyclo[3.2.1.02,4]octane-6-carboxylate",CCOC(=O)C1CC2CC1C3C2O3,520.18,10,"[1, 6, 8]",3,True,CHO,ester
8802,2-pentylcyclopent-2-en-1-one,CCCCCC1=CCCC1=O,520.31,10,"[1, 6, 8]",3,True,CHO,alkene
8803,"2,6-dimethylocta-2,7-dien-1-ol",CC(CCC=C(C)CO)C=C,520.86,10,"[1, 6, 8]",3,True,CHO,alkene
8804,adamantan-1-amine,C1C2CC3CC1CC(C2)(C3)N,520.99,10,"[1, 6, 7]",3,True,CHN,amine
8805,"(E)-3,7-dimethyloct-4-en-3-ol",CCC(C)(/C=C/CC(C)C)O,521.07,10,"[1, 6, 8]",3,True,CHO,alkene
8806,"3,5-diethylphenol",CCC1=CC(=CC(=C1)O)CC,521.15,10,"[1, 6, 8]",3,True,CHO,aromatic
8807,"1,7,7-trimethylbicyclo[2.2.1]heptane-2,5-dione",CC1(C2CC(=O)C1(CC2=O)C)C,521.15,10,"[1, 6, 8]",3,True,CHO,ketone
8808,7-methyl-3-methylideneoct-6-en-1-ol,CC(=CCCC(=C)CCO)C,521.18,10,"[1, 6, 8]",3,True,CHO,alkene
8809,"3,7-dimethyloct-6-en-3-ol",CCC(C)(CCC=C(C)C)O,521.39,10,"[1, 6, 8]",3,True,CHO,alkene
8810,"3,6-dimethyloct-6-en-3-ol",CCC(C)(CCC(=CC)C)O,521.39,10,"[1, 6, 8]",3,True,CHO,alkene
8811,(4-methyl-7-oxabicyclo[4.1.0]heptan-3-yl)methyl acetate,CC1CC2C(O2)CC1COC(=O)C,521.98,10,"[1, 6, 8]",3,True,CHO,ester
8812,"N,N'-dimethyloctane-1,8-diamine",CNCCCCCCCCNC,522.15,10,"[1, 6, 7]",3,True,CHN,amine
8813,"[2,2-dimethyl-3-(2-methylprop-1-enyl)cyclopropyl]methanol",CC(=CC1C(C1(C)C)CO)C,522.26,10,"[1, 6, 8]",3,True,CHO,alkene
8814,"7a-methyl-3,3a,4,5,6,7-hexahydro-1H-inden-2-one",CC12CCCCC1CC(=O)C2,522.75,10,"[1, 6, 8]",3,True,CHO,ketone
8815,2-(2-ethylphenyl)ethanol,CCC1=CC=CC=C1CCO,522.85,10,"[1, 6, 8]",3,True,CHO,aromatic
8816,3-methyl-6-methylideneoct-4-yn-3-ol,CCC(=C)C#CC(C)(CC)O,522.91,10,"[1, 6, 8]",3,True,CHO,alkene
8817,2-(4-ethylphenyl)ethanol,CCC1=CC=C(C=C1)CCO,523.15,10,"[1, 6, 8]",3,True,CHO,aromatic
8818,"1,2-dimethyl-3-prop-1-en-2-ylcyclopentan-1-ol",CC1C(CCC1(C)O)C(=C)C,523.32,10,"[1, 6, 8]",3,True,CHO,alkene
8819,O-decylhydroxylamine,CCCCCCCCCCON,523.35,10,"[1, 6, 7, 8]",4,True,CHON,ester
8820,7-methyl-3-methylideneoct-7-enenitrile,CC(=C)CCCC(=C)CC#N,523.6,10,"[1, 6, 7]",3,True,CHN,alkene
8821,4-methyl-2-propylhex-2-en-1-ol,CCCC(=CC(C)CC)CO,524.18,10,"[1, 6, 8]",3,True,CHO,alkene
8822,(E)-dec-3-en-1-ol,CCCCCC/C=C/CCO,524.74,10,"[1, 6, 8]",3,True,CHO,alkene
8823,(E)-dec-2-en-1-ol,CCCCCCC/C=C/CO,524.74,10,"[1, 6, 8]",3,True,CHO,alkene
8824,(Z)-dec-5-en-1-ol,CCCC/C=C\CCCCO,524.74,10,"[1, 6, 8]",3,True,CHO,alkene
8825,(Z)-dec-4-en-1-ol,CCCCC/C=C\CCCO,524.74,10,"[1, 6, 8]",3,True,CHO,alkene
8826,"4,4,6-trimethyl-2-prop-1-en-2-yl-5,6-dihydro-1,3-oxazine",CC1CC(N=C(O1)C(=C)C)(C)C,524.87,10,"[1, 6, 7, 8]",4,True,CHON,ester
8827,"N-(2,4,4-trimethylpentan-2-yl)acetamide",CC(=O)NC(C)(C)CC(C)(C)C,525.98,10,"[1, 6, 7, 8]",4,True,CHON,amide
8828,"7,12-dioxaspiro[5.6]dodecane",C1CCC2(CC1)OCCCCO2,526.31,10,"[1, 6, 8]",3,True,CHO,ester
8829,2-ethyloctanoic acid,CCCCCCC(CC)C(=O)O,526.65,10,"[1, 6, 8]",3,True,CHO,alcohol
8830,2-methoxy-5-prop-2-enylphenol,COC1=C(C=C(C=C1)CC=C)O,526.65,10,"[1, 6, 8]",3,True,CHO,ester
8831,"3,4,4a,5,6,7,8,8a-octahydro-2H-naphthalen-1-one",C1CCC2C(C1)CCCC2=O,526.78,10,"[1, 6, 8]",3,True,CHO,ketone
8832,"11-azabicyclo[4.4.1]undeca-1,3,5,7,9-pentaene",C1=CC=C2C=CC=CC(=C1)N2,526.88,10,"[1, 6, 7]",3,True,CHN,alkene
8833,2-butylidenecyclohexan-1-one,CCCC=C1CCCCC1=O,527.08,10,"[1, 6, 8]",3,True,CHO,alkene
8834,"1,2,2,3-tetramethylcyclopentane-1-carboxylic acid",CC1CCC(C1(C)C)(C)C(=O)O,527.15,10,"[1, 6, 8]",3,True,CHO,alcohol
8835,"2-ethenyl-2,5-dimethylhex-4-enenitrile",CC(=CCC(C)(C=C)C#N)C,527.97,10,"[1, 6, 7]",3,True,CHN,alkene
8836,2-butylhexanoic acid,CCCCC(CCCC)C(=O)O,528.15,10,"[1, 6, 8]",3,True,CHO,alcohol
8837,2-(4-methoxyphenyl)propanal,CC(C=O)C1=CC=C(C=C1)OC,528.15,10,"[1, 6, 8]",3,True,CHO,ester
8838,"6,6-dimethyl-2-methylidenebicyclo[3.1.1]heptan-3-ol",CC1(C2CC1C(=C)C(C2)O)C,528.39,10,"[1, 6, 8]",3,True,CHO,alkene
8839,"N,N'-dibutylethane-1,2-diamine",CCCCNCCNCCCC,528.74,10,"[1, 6, 7]",3,True,CHN,amine
8840,"N,N'-diethylhexane-1,6-diamine",CCNCCCCCCNCC,528.74,10,"[1, 6, 7]",3,True,CHN,amine
8841,1-piperidin-4-ylpiperidine,C1CCN(CC1)C2CCNCC2,528.89,10,"[1, 6, 7]",3,True,CHN,amine
8842,1-cyclohexylpiperazine,C1CCC(CC1)N2CCNCC2,528.89,10,"[1, 6, 7]",3,True,CHN,amine
8843,"(2E,4E)-deca-2,4-dien-1-ol",CCCCC/C=C/C=C/CO,528.9,10,"[1, 6, 8]",3,True,CHO,alkene
8844,"deca-3,7-dien-1-ol",CCC=CCCC=CCCO,528.9,10,"[1, 6, 8]",3,True,CHO,alkene
8845,4-methylisoquinoline,CC1=CN=CC2=CC=CC=C12,529.15,10,"[1, 6, 7]",3,True,CHN,aromatic