,Name,SMILES,Tb,C Atom,Atom,Count Unique Atom,Pass Screen,Atom2,Func. Group
10408,"2,3,4,5,5-pentamethylheptane",CCC(C)(C)C(C)C(C)C(C)C,470.15,12,"[1, 6]",2,True,CH,alkane
10409,"hexacyclo[5.4.1.02,6.03,10.04,8.09,12]dodecane",C1C2C3C4CC5C3C1C6C2C4C56,470.3,12,"[1, 6]",2,True,CH,alkane
10410,"hexacyclo[6.4.0.02,7.03,12.04,6.09,11]dodecane",C1C2C1C3C4C5CC5C6C2C3C64,470.3,12,"[1, 6]",2,True,CH,alkane
10411,10-methylundec-1-ene,CC(C)CCCCCCCC=C,470.4,12,"[1, 6]",2,True,CH,alkene
10412,8-methylundec-1-ene,CCCC(C)CCCCCC=C,470.4,12,"[1, 6]",2,True,CH,alkene
10413,7-methylundec-1-ene,CCCCC(C)CCCCC=C,470.4,12,"[1, 6]",2,True,CH,alkene
10414,"3-ethyl-2,3,5-trimethylheptane",CCC(C)CC(C)(CC)C(C)C,470.65,12,"[1, 6]",2,True,CH,alkane
10415,"2,6-dimethyldecane",CCCCC(C)CCCC(C)C,471.15,12,"[1, 6]",2,True,CH,alkane
10416,5-ethyl-5-methylnonane,CCCCC(C)(CC)CCCC,471.15,12,"[1, 6]",2,True,CH,alkane
10417,"4,6-dimethyldecane",CCCCC(C)CC(C)CCC,471.15,12,"[1, 6]",2,True,CH,alkane
10418,"2,5-dimethyldecane",CCCCCC(C)CCC(C)C,471.15,12,"[1, 6]",2,True,CH,alkane
10419,"6-ethyl-2,6-dimethyloctane",CCC(C)(CC)CCCC(C)C,471.15,12,"[1, 6]",2,True,CH,alkane
10420,"4-ethyl-3,3-dimethyloctane",CCCCC(CC)C(C)(C)CC,471.15,12,"[1, 6]",2,True,CH,alkane
10421,"5-ethyl-3,4-dimethyloctane",CCCC(CC)C(C)C(C)CC,471.15,12,"[1, 6]",2,True,CH,alkane
10422,"6-ethyl-3,4-dimethyloctane",CCC(C)C(C)CC(CC)CC,471.15,12,"[1, 6]",2,True,CH,alkane
10423,"3-ethyl-4,4-dimethyloctane",CCCCC(C)(C)C(CC)CC,471.15,12,"[1, 6]",2,True,CH,alkane
10424,4-methyl-4-propan-2-yloctane,CCCCC(C)(CCC)C(C)C,471.15,12,"[1, 6]",2,True,CH,alkane
10425,"3,3,6-trimethylnonane",CCCC(C)CCC(C)(C)CC,471.15,12,"[1, 6]",2,True,CH,alkane
10426,"4,4,5-trimethylnonane",CCCCC(C)C(C)(C)CCC,471.15,12,"[1, 6]",2,True,CH,alkane
10427,"4,5,5-trimethylnonane",CCCCC(C)(C)C(C)CCC,471.15,12,"[1, 6]",2,True,CH,alkane
10428,6-ethyl-2-methylnonane,CCCC(CC)CCCC(C)C,471.15,12,"[1, 6]",2,True,CH,alkane
10429,5-ethyl-4-methylnonane,CCCCC(CC)C(C)CCC,471.15,12,"[1, 6]",2,True,CH,alkane
10430,"2,3,6-trimethylnonane",CCCC(C)CCC(C)C(C)C,471.15,12,"[1, 6]",2,True,CH,alkane
10431,4-propan-2-ylnonane,CCCCCC(CCC)C(C)C,471.15,12,"[1, 6]",2,True,CH,alkane
10432,5-propan-2-ylnonane,CCCCC(CCCC)C(C)C,471.15,12,"[1, 6]",2,True,CH,alkane
10433,4-tert-butyl-4-methylheptane,CCCC(C)(CCC)C(C)(C)C,471.15,12,"[1, 6]",2,True,CH,alkane
10434,"3,4-dimethyl-4-propylheptane",CCCC(C)(CCC)C(C)CC,471.15,12,"[1, 6]",2,True,CH,alkane
10435,"4-ethyl-2,3,4-trimethylheptane",CCCC(C)(CC)C(C)C(C)C,471.15,12,"[1, 6]",2,True,CH,alkane
10436,"5,5-diethyl-2-methylheptane",CCC(CC)(CC)CCC(C)C,471.15,12,"[1, 6]",2,True,CH,alkane
10437,"3,4-diethyl-5-methylheptane",CCC(C)C(CC)C(CC)CC,471.15,12,"[1, 6]",2,True,CH,alkane
10438,"3,3,4,5-tetramethyloctane",CCCC(C)C(C)C(C)(C)CC,471.15,12,"[1, 6]",2,True,CH,alkane
10439,"4,5,6-trimethylnonane",CCCC(C)C(C)C(C)CCC,471.15,12,"[1, 6]",2,True,CH,alkane
10440,"(E)-2,2,3,4,5,5-hexamethylhex-3-ene",C/C(=C(/C)\C(C)(C)C)/C(C)(C)C,471.62,12,"[1, 6]",2,True,CH,alkene
10441,"(E)-2,2,4,6,6-pentamethylhept-3-ene",C/C(=C\C(C)(C)C)/CC(C)(C)C,471.74,12,"[1, 6]",2,True,CH,alkene
10442,"(Z)-2,2,4,6,6-pentamethylhept-3-ene",C/C(=C/C(C)(C)C)/CC(C)(C)C,471.74,12,"[1, 6]",2,True,CH,alkene
10443,"(Z)-2,2,7,7-tetramethyloct-4-ene",CC(C)(C)C/C=C\CC(C)(C)C,471.86,12,"[1, 6]",2,True,CH,alkene
10444,"(E)-2,2,7,7-tetramethyloct-4-ene",CC(C)(C)C/C=C/CC(C)(C)C,471.86,12,"[1, 6]",2,True,CH,alkene
10445,4-ethyl-5-methylnonane,CCCCC(C)C(CC)CCC,472.15,12,"[1, 6]",2,True,CH,alkane
10446,4-propylnonane,CCCCCC(CCC)CCC,472.15,12,"[1, 6]",2,True,CH,alkane
10447,"4,4-dimethyldecane",CCCCCCC(C)(C)CCC,472.15,12,"[1, 6]",2,True,CH,alkane
10448,4-ethyl-4-methylnonane,CCCCCC(C)(CC)CCC,472.15,12,"[1, 6]",2,True,CH,alkane
10449,"4,7-dimethyldecane",CCCC(C)CCC(C)CCC,472.15,12,"[1, 6]",2,True,CH,alkane
10450,"3-ethyl-3,6-dimethyloctane",CCC(C)CCC(C)(CC)CC,472.15,12,"[1, 6]",2,True,CH,alkane
10451,"3-ethyl-4,5-dimethyloctane",CCCC(C)C(C)C(CC)CC,472.15,12,"[1, 6]",2,True,CH,alkane
10452,"3,4-diethyloctane",CCCCC(CC)C(CC)CC,472.15,12,"[1, 6]",2,True,CH,alkane
10453,"6-ethyl-2,3-dimethyloctane",CCC(CC)CCC(C)C(C)C,472.15,12,"[1, 6]",2,True,CH,alkane
10454,"2,6,7-trimethylnonane",CCC(C)C(C)CCCC(C)C,472.15,12,"[1, 6]",2,True,CH,alkane
10455,6-ethyl-3-methylnonane,CCCC(CC)CCC(C)CC,472.15,12,"[1, 6]",2,True,CH,alkane
10456,3-ethyl-5-methylnonane,CCCCC(C)CC(CC)CC,472.15,12,"[1, 6]",2,True,CH,alkane
10457,"2,2,3,3,4,5-hexamethylhexane",CC(C)C(C)C(C)(C)C(C)(C)C,472.15,12,"[1, 6]",2,True,CH,alkane
10458,"3,4,5,6-tetramethyloctane",CCC(C)C(C)C(C)C(C)CC,472.15,12,"[1, 6]",2,True,CH,alkane
10459,"5-ethyl-3,3,4-trimethylheptane",CCC(CC)C(C)C(C)(C)CC,472.15,12,"[1, 6]",2,True,CH,alkane
10460,"3,3-diethyl-5-methylheptane",CCC(C)CC(CC)(CC)CC,472.15,12,"[1, 6]",2,True,CH,alkane
10461,"4-ethyl-2,3,3-trimethylheptane",CCCC(CC)C(C)(C)C(C)C,472.15,12,"[1, 6]",2,True,CH,alkane
10462,"(4E,7E,10E)-dodeca-1,4,7,10-tetraene",C/C=C/C/C=C/C/C=C/CC=C,473.15,12,"[1, 6]",2,True,CH,alkene
10463,"2,4-dimethyldecane",CCCCCCC(C)CC(C)C,473.15,12,"[1, 6]",2,True,CH,alkane
10464,"4,4-diethyloctane",CCCCC(CC)(CC)CCC,473.15,12,"[1, 6]",2,True,CH,alkane
10465,"3,5-dimethyldecane",CCCCCC(C)CC(C)CC,473.15,12,"[1, 6]",2,True,CH,alkane
10466,"3,4,7-trimethylnonane",CCC(C)CCC(C)C(C)CC,473.15,12,"[1, 6]",2,True,CH,alkane
10467,"2,2,3-trimethylnonane",CCCCCCC(C)C(C)(C)C,473.15,12,"[1, 6]",2,True,CH,alkane
10468,"4-ethyl-4,5-dimethyloctane",CCCC(C)C(C)(CC)CCC,473.15,12,"[1, 6]",2,True,CH,alkane
10469,"3,4,4-trimethylnonane",CCCCCC(C)(C)C(C)CC,473.15,12,"[1, 6]",2,True,CH,alkane
10470,"3,4,5-trimethylnonane",CCCCC(C)C(C)C(C)CC,473.15,12,"[1, 6]",2,True,CH,alkane
10471,3-ethyl-7-methylnonane,CCC(C)CCCC(CC)CC,473.15,12,"[1, 6]",2,True,CH,alkane
10472,3-ethyl-4-methylnonane,CCCCCC(C)C(CC)CC,473.15,12,"[1, 6]",2,True,CH,alkane
10473,3-ethyl-6-methylnonane,CCCC(C)CCC(CC)CC,473.15,12,"[1, 6]",2,True,CH,alkane
10474,"2,3,4-trimethylnonane",CCCCCC(C)C(C)C(C)C,473.15,12,"[1, 6]",2,True,CH,alkane
10475,"2,3,8-trimethylnonane",CC(C)CCCCC(C)C(C)C,473.15,12,"[1, 6]",2,True,CH,alkane
10476,"4,4-diethyl-2,2-dimethylhexane",CCC(CC)(CC)CC(C)(C)C,473.15,12,"[1, 6]",2,True,CH,alkane
10477,"3,3-diethyl-2,4-dimethylhexane",CCC(C)C(CC)(CC)C(C)C,473.15,12,"[1, 6]",2,True,CH,alkane
10478,"3,4-diethyl-2,4-dimethylhexane",CCC(C(C)C)C(C)(CC)CC,473.15,12,"[1, 6]",2,True,CH,alkane
10479,"3-ethyl-2,2,4,4-tetramethylhexane",CCC(C(C)(C)C)C(C)(C)CC,473.15,12,"[1, 6]",2,True,CH,alkane
10480,"4,4,5,5-tetramethyloctane",CCCC(C)(C)C(C)(C)CCC,473.15,12,"[1, 6]",2,True,CH,alkane
10481,"2,2,3,3,4-pentamethylheptane",CCCC(C)C(C)(C)C(C)(C)C,473.15,12,"[1, 6]",2,True,CH,alkane
10482,"3,5-diethyl-4-methylheptane",CCC(CC)C(C)C(CC)CC,473.15,12,"[1, 6]",2,True,CH,alkane
10483,"3-ethyl-2,2,3-trimethylheptane",CCCCC(C)(CC)C(C)(C)C,473.15,12,"[1, 6]",2,True,CH,alkane
10484,"2,3,3,4,5-pentamethylheptane",CCC(C)C(C)C(C)(C)C(C)C,473.15,12,"[1, 6]",2,True,CH,alkane
10485,"2,3,3,5,5-pentamethylheptane",CCC(C)(C)CC(C)(C)C(C)C,473.15,12,"[1, 6]",2,True,CH,alkane
10486,"2,3,4,4,5-pentamethylheptane",CCC(C)C(C)(C)C(C)C(C)C,473.15,12,"[1, 6]",2,True,CH,alkane
10487,3-ethyl-2-methyl-3-propan-2-ylhexane,CCCC(CC)(C(C)C)C(C)C,473.15,12,"[1, 6]",2,True,CH,alkane
10488,"3,3-diethyl-2,2-dimethylhexane",CCCC(CC)(CC)C(C)(C)C,473.15,12,"[1, 6]",2,True,CH,alkane
10489,"3-ethyl-3,4-dimethyloctane",CCCCC(C)C(C)(CC)CC,473.15,12,"[1, 6]",2,True,CH,alkane
10490,"5,6-dimethyldecane",CCCCC(C)C(C)CCCC,474.15,12,"[1, 6]",2,True,CH,alkane
10491,"2,2-dimethyldecane",CCCCCCCCC(C)(C)C,474.15,12,"[1, 6]",2,True,CH,alkane
10492,"3,6-dimethyldecane",CCCCC(C)CCC(C)CC,474.15,12,"[1, 6]",2,True,CH,alkane
10493,"4-ethyl-3,4-dimethyloctane",CCCCC(C)(CC)C(C)CC,474.15,12,"[1, 6]",2,True,CH,alkane
10494,4-ethyl-3-methylnonane,CCCCCC(CC)C(C)CC,474.15,12,"[1, 6]",2,True,CH,alkane
10495,"2,3,7-trimethylnonane",CCC(C)CCCC(C)C(C)C,474.15,12,"[1, 6]",2,True,CH,alkane
10496,3-ethyl-2-methylnonane,CCCCCCC(CC)C(C)C,474.15,12,"[1, 6]",2,True,CH,alkane
10497,"4-ethyl-2,2,3,3-tetramethylhexane",CCC(CC)C(C)(C)C(C)(C)C,474.15,12,"[1, 6]",2,True,CH,alkane
10498,"3-ethyl-2,3,4,5-tetramethylhexane",CCC(C)(C(C)C)C(C)C(C)C,474.15,12,"[1, 6]",2,True,CH,alkane
10499,"2,3-dimethyl-3-propan-2-ylheptane",CCCCC(C)(C(C)C)C(C)C,474.15,12,"[1, 6]",2,True,CH,alkane
10500,"3,4-dimethyl-4-propan-2-ylheptane",CCCC(C)(C(C)C)C(C)CC,474.15,12,"[1, 6]",2,True,CH,alkane
10501,"3,4-diethyl-3-methylheptane",CCCC(CC)C(C)(CC)CC,474.15,12,"[1, 6]",2,True,CH,alkane
10502,"3,4-diethyl-4-methylheptane",CCCC(C)(CC)C(CC)CC,474.15,12,"[1, 6]",2,True,CH,alkane
10503,"2,3,3,4-tetramethyloctane",CCCCC(C)C(C)(C)C(C)C,474.15,12,"[1, 6]",2,True,CH,alkane
10504,"3,4,4,5-tetramethyloctane",CCCC(C)C(C)(C)C(C)CC,474.15,12,"[1, 6]",2,True,CH,alkane
10505,"2,2,3-trimethyl-3-propan-2-ylhexane",CCCC(C)(C(C)C)C(C)(C)C,474.15,12,"[1, 6]",2,True,CH,alkane
10506,"1,2,4-tris(ethenyl)cyclohexane",C=CC1CCC(C(C1)C=C)C=C,474.41,12,"[1, 6]",2,True,CH,alkene
10507,"9-propan-2-ylidenepentacyclo[4.3.0.02,4.03,8.05,7]nonane",CC(=C1C2C3C4C3C1C5C4C52)C,474.75,12,"[1, 6]",2,True,CH,alkene
10508,5-ethyldecane,CCCCCC(CC)CCCC,475.15,12,"[1, 6]",2,True,CH,alkane
10509,"4,5-dimethyldecane",CCCCCC(C)C(C)CCC,475.15,12,"[1, 6]",2,True,CH,alkane
10510,"2,7-dimethyldecane",CCCC(C)CCCCC(C)C,475.15,12,"[1, 6]",2,True,CH,alkane
10511,"3,7-dimethyldecane",CCCC(C)CCCC(C)CC,475.15,12,"[1, 6]",2,True,CH,alkane
10512,"3-ethyl-2,3-dimethyloctane",CCCCCC(C)(CC)C(C)C,475.15,12,"[1, 6]",2,True,CH,alkane
10513,"3,3,4-trimethylnonane",CCCCCC(C)C(C)(C)CC,475.15,12,"[1, 6]",2,True,CH,alkane
10514,7-ethyl-2-methylnonane,CCC(CC)CCCCC(C)C,475.15,12,"[1, 6]",2,True,CH,alkane
10515,"2,3,3-trimethylnonane",CCCCCCC(C)(C)C(C)C,475.15,12,"[1, 6]",2,True,CH,alkane
10516,"3-ethyl-3,5,5-trimethylheptane",CCC(C)(C)CC(C)(CC)CC,475.15,12,"[1, 6]",2,True,CH,alkane
10517,"3-ethyl-4,4,5-trimethylheptane",CCC(C)C(C)(C)C(CC)CC,475.15,12,"[1, 6]",2,True,CH,alkane
10518,"3-ethyl-3,4,5-trimethylheptane",CCC(C)C(C)C(C)(CC)CC,475.15,12,"[1, 6]",2,True,CH,alkane
10519,"2,2,3,4,4-pentamethylheptane",CCCC(C)(C)C(C)C(C)(C)C,475.15,12,"[1, 6]",2,True,CH,alkane
10520,"3,3,4,4-tetramethyloctane",CCCCC(C)(C)C(C)(C)CC,475.15,12,"[1, 6]",2,True,CH,alkane
10521,"8-methylidenepentacyclo[5.4.0.02,6.03,10.05,9]undecane",C=C1C2C3CC4C1C5C2CC3C45,475.93,12,"[1, 6]",2,True,CH,alkene
10522,"(3Z,5E)-2,2,7,7-tetramethylocta-3,5-diene",CC(C)(C)/C=C/C=C\C(C)(C)C,476.02,12,"[1, 6]",2,True,CH,alkene
10523,"3,3-dimethyldecane",CCCCCCCC(C)(C)CC,476.15,12,"[1, 6]",2,True,CH,alkane
10524,"3,3-diethyl-2-methylheptane",CCCCC(CC)(CC)C(C)C,476.15,12,"[1, 6]",2,True,CH,alkane
10525,"3-ethyl-2,3,4-trimethylheptane",CCCC(C)C(C)(CC)C(C)C,476.15,12,"[1, 6]",2,True,CH,alkane
10526,"2,3,3,4,4-pentamethylheptane",CCCC(C)(C)C(C)(C)C(C)C,476.15,12,"[1, 6]",2,True,CH,alkane
10527,"2,9-dimethyldecane",CC(C)CCCCCCC(C)C,477.15,12,"[1, 6]",2,True,CH,alkane
10528,4-ethyldecane,CCCCCCC(CC)CCC,477.15,12,"[1, 6]",2,True,CH,alkane
10529,3-ethyl-3-methylnonane,CCCCCCC(C)(CC)CC,477.15,12,"[1, 6]",2,True,CH,alkane
10530,"2,8-dimethyldecane",CCC(C)CCCCCC(C)C,477.15,12,"[1, 6]",2,True,CH,alkane
10531,"3,4-diethyl-2,3-dimethylhexane",CCC(CC)C(C)(CC)C(C)C,477.15,12,"[1, 6]",2,True,CH,alkane
10532,"4,4-diethyl-2,3-dimethylhexane",CCC(CC)(CC)C(C)C(C)C,477.15,12,"[1, 6]",2,True,CH,alkane
10533,"3-ethyl-2,2,3,4-tetramethylhexane",CCC(C)C(C)(CC)C(C)(C)C,477.15,12,"[1, 6]",2,True,CH,alkane
10534,"2,2,3,4-tetramethyl-3-propan-2-ylpentane",CC(C)C(C)(C(C)C)C(C)(C)C,477.15,12,"[1, 6]",2,True,CH,alkane
10535,"4,4-diethyl-3-methylheptane",CCCC(CC)(CC)C(C)CC,477.15,12,"[1, 6]",2,True,CH,alkane
10536,"2,3,4-trimethyl-3-propan-2-ylhexane",CCC(C)C(C)(C(C)C)C(C)C,477.15,12,"[1, 6]",2,True,CH,alkane
10537,"1,2-di(propan-2-yl)benzene",CC(C)C1=CC=CC=C1C(C)C,478.15,12,"[1, 6]",2,True,CH,aromatic
10538,3-methylpentan-3-ylbenzene,CCC(C)(CC)C1=CC=CC=C1,478.15,12,"[1, 6]",2,True,CH,aromatic
10539,"4-tert-butyl-1,2-dimethylbenzene",CC1=C(C=C(C=C1)C(C)(C)C)C,478.15,12,"[1, 6]",2,True,CH,aromatic
10540,"3,4-dimethyldecane",CCCCCCC(C)C(C)CC,478.15,12,"[1, 6]",2,True,CH,alkane
10541,"3,8-dimethyldecane",CCC(C)CCCCC(C)CC,478.15,12,"[1, 6]",2,True,CH,alkane
10542,"4-ethyl-3,3,4-trimethylheptane",CCCC(C)(CC)C(C)(C)CC,478.15,12,"[1, 6]",2,True,CH,alkane
10543,"3-ethyl-3,4,4-trimethylheptane",CCCC(C)(C)C(C)(CC)CC,478.15,12,"[1, 6]",2,True,CH,alkane
10544,"4-ethyl-3,4,5-trimethylheptane",CCC(C)C(C)(CC)C(C)CC,478.15,12,"[1, 6]",2,True,CH,alkane
10545,"3,3-diethyl-4-methylheptane",CCCC(C)C(CC)(CC)CC,478.15,12,"[1, 6]",2,True,CH,alkane
10546,(E)-dodec-2-ene,CCCCCCCCC/C=C/C,478.32,12,"[1, 6]",2,True,CH,alkene
10547,(E)-dodec-3-ene,CCCCCCCC/C=C/CC,478.32,12,"[1, 6]",2,True,CH,alkene
10548,(E)-dodec-4-ene,CCCCCCC/C=C/CCC,478.32,12,"[1, 6]",2,True,CH,alkene
10549,(Z)-dodec-2-ene,CCCCCCCCC/C=C\C,478.32,12,"[1, 6]",2,True,CH,alkene
10550,(E)-dodec-5-ene,CCCCCC/C=C/CCCC,478.32,12,"[1, 6]",2,True,CH,alkene
10551,(Z)-dodec-6-ene,CCCCC/C=C\CCCCC,478.32,12,"[1, 6]",2,True,CH,alkene
10552,(E)-dodec-6-ene,CCCCC/C=C/CCCCC,478.32,12,"[1, 6]",2,True,CH,alkene
10553,2-methylpentan-2-ylbenzene,CCCC(C)(C)C1=CC=CC=C1,478.65,12,"[1, 6]",2,True,CH,aromatic
10554,"(3E,5E)-2-methylundeca-1,3,5-triene",CCCCC/C=C/C=C/C(=C)C,479.04,12,"[1, 6]",2,True,CH,alkene
10555,5-methylundecane,CCCCCCC(C)CCCC,479.15,12,"[1, 6]",2,True,CH,alkane
10556,6-methylundecane,CCCCCC(C)CCCCC,479.15,12,"[1, 6]",2,True,CH,alkane
10557,"2,3-dimethyldecane",CCCCCCCC(C)C(C)C,479.15,12,"[1, 6]",2,True,CH,alkane
10558,"2,3,3,4,4,5-hexamethylhexane",CC(C)C(C)(C)C(C)(C)C(C)C,479.15,12,"[1, 6]",2,True,CH,alkane
10559,"2,2,3,4,4,5-hexamethylhexane",CC(C)C(C)(C)C(C)C(C)(C)C,479.15,12,"[1, 6]",2,True,CH,alkane
10560,"3,3-diethyl-2,2,4-trimethylpentane",CCC(CC)(C(C)C)C(C)(C)C,479.15,12,"[1, 6]",2,True,CH,alkane
10561,"3-ethyl-2,4-dimethyl-3-propan-2-ylpentane",CCC(C(C)C)(C(C)C)C(C)C,479.15,12,"[1, 6]",2,True,CH,alkane
10562,"3,3,4,4,5-pentamethylheptane",CCC(C)C(C)(C)C(C)(C)CC,479.15,12,"[1, 6]",2,True,CH,alkane
10563,"3,3,4-triethylhexane",CCC(CC)C(CC)(CC)CC,479.15,12,"[1, 6]",2,True,CH,alkane
10564,2-cyclopentylethylcyclopentane,C1CCC(C1)CCC2CCCC2,479.65,12,"[1, 6]",2,True,CH,alkane
10565,dodec-1-en-3-yne,CCCCCCCCC#CC=C,479.84,12,"[1, 6]",2,True,CH,alkene
10566,"3,3-dimethyldec-4-yne",CCCCCC#CC(C)(C)CC,479.93,12,"[1, 6]",2,True,CH,alkyne
10567,"pentacyclo[6.3.1.02,7.03,5.09,11]dodecane",C1C2C1C3C(C2)C4CC3C5C4C5,481.04,12,"[1, 6]",2,True,CH,alkane
10568,"1,3-dimethyladamantane",CC12CC3CC(C1)CC(C3)(C2)C,481.15,12,"[1, 6]",2,True,CH,alkane
10569,hexan-2-ylbenzene,CCCCC(C)C1=CC=CC=C1,481.15,12,"[1, 6]",2,True,CH,aromatic
10570,1-(1-pentoxyethoxy)pentane,CCCCCOC(C)OCCCCC,481.15,12,"[1, 6, 8]",3,True,CHO,ester
10571,"4-ethyl-2,2,3,4-tetramethylhexane",CCC(C)(CC)C(C)C(C)(C)C,481.15,12,"[1, 6]",2,True,CH,alkane
10572,"4-ethyl-2,3,3,4-tetramethylhexane",CCC(C)(CC)C(C)(C)C(C)C,481.15,12,"[1, 6]",2,True,CH,alkane
10573,"3-ethyl-2,3,4,4-tetramethylhexane",CCC(C)(C)C(C)(CC)C(C)C,481.15,12,"[1, 6]",2,True,CH,alkane
10574,"3,3,4,5,5-pentamethylheptane",CCC(C)(C)C(C)C(C)(C)CC,482.15,12,"[1, 6]",2,True,CH,alkane
10575,"2,9-dimethyldec-5-yne",CC(C)CCC#CCCC(C)C,482.28,12,"[1, 6]",2,True,CH,alkyne
10576,4-[(4-aminophenyl)diazenyl]phenol,C1=CC(=CC=C1N)N=NC2=CC=C(C=C2)O,483.15,12,"[1, 6, 7, 8]",4,True,CHON,alcohol
10577,"5-[2-(tert-butylamino)-1-hydroxyethyl]benzene-1,3-diol",CC(C)(C)NCC(C1=CC(=CC(=C1)O)O)O,483.15,12,"[1, 6, 7, 8]",4,True,CHON,alcohol
10578,"3,3-diethyl-4,4-dimethylhexane",CCC(C)(C)C(CC)(CC)CC,483.15,12,"[1, 6]",2,True,CH,alkane
10579,"3,4-diethyl-3,4-dimethylhexane",CCC(C)(CC)C(C)(CC)CC,483.15,12,"[1, 6]",2,True,CH,alkane
10580,dodec-5-yne,CCCCCCC#CCCCC,483.16,12,"[1, 6]",2,True,CH,alkyne
10581,dodec-4-yne,CCCCCCCC#CCCC,483.16,12,"[1, 6]",2,True,CH,alkyne
10582,3-aminophenazin-2-ol,C1=CC=C2C(=C1)N=C3C=C(C(=CC3=N2)O)N,483.65,12,"[1, 6, 7, 8]",4,True,CHON,alcohol
10583,"1,4-di(propan-2-yl)cyclohexane",CC(C)C1CCC(CC1)C(C)C,483.9,12,"[1, 6]",2,True,CH,alkane
10584,2-ethyl-1-methyl-4-propan-2-ylbenzene,CCC1=C(C=CC(=C1)C(C)C)C,484.15,12,"[1, 6]",2,True,CH,aromatic
10585,"pentacyclo[6.3.1.01,3.02,7.04,9]dodeca-5,10-diene",C1C2C3C=CC4C2C=CC15C3C54,484.27,12,"[1, 6]",2,True,CH,alkene
10586,"8,9-dimethyltricyclo[5.2.1.02,6]decane",CC1C(C2CC1C3C2CCC3)C,484.64,12,"[1, 6]",2,True,CH,alkane
10587,2-methylundec-1-ene,CCCCCCCCCC(=C)C,484.75,12,"[1, 6]",2,True,CH,alkene
10588,"2,2,4-trimethylpent-3-enyl 2-methylpropanoate",CC(C)C(=O)OCC(C)(C)C=C(C)C,485.15,12,"[1, 6, 8]",3,True,CHO,ester
10589,"2,2,7,7-tetramethylocta-3,5-diyne",CC(C)(C)C#CC#CC(C)(C)C,485.7,12,"[1, 6]",2,True,CH,alkyne
10590,dec-2-enyl acetate,CCCCCCCC=CCOC(=O)C,486.15,12,"[1, 6, 8]",3,True,CHO,ester
10591,"N,N-diethyloctan-1-amine",CCCCCCCCN(CC)CC,486.15,12,"[1, 6, 7]",3,True,CHN,amine
10592,"5-(diethoxymethyl)-1,3-benzodioxole",CCOC(C1=CC2=C(C=C1)OCO2)OCC,486.15,12,"[1, 6, 8]",3,True,CHO,ester
10593,"(4E,6E)-2-methylundeca-2,4,6-triene",CCCC/C=C/C=C/C=C(C)C,486.52,12,"[1, 6]",2,True,CH,alkene
10594,"3-ethyl-2,2,3,4,4-pentamethylpentane",CCC(C)(C(C)(C)C)C(C)(C)C,487.15,12,"[1, 6]",2,True,CH,alkane
10595,2-ethylhexyl butanoate,CCCCC(CC)COC(=O)CCC,488.15,12,"[1, 6, 8]",3,True,CHO,ester
10596,"3,4,5-trimethylnonan-2-one",CCCCC(C)C(C)C(C)C(=O)C,488.15,12,"[1, 6, 8]",3,True,CHO,ketone
10597,"1,3-di(propan-2-yl)cyclohexane",CC(C)C1CCCC(C1)C(C)C,488.16,12,"[1, 6]",2,True,CH,alkane
10598,1-(8-methoxy-2H-chromen-3-yl)ethanone,CC(=O)C1=CC2=C(C(=CC=C2)OC)OC1,488.65,12,"[1, 6, 8]",3,True,CHO,ester
10599,bis(2-methylpropyl) butanedioate,CC(C)COC(=O)CCC(=O)OCC(C)C,489.15,12,"[1, 6, 8]",3,True,CHO,ester
10600,"2,2,3,3,4,4-hexamethylhexane",CCC(C)(C)C(C)(C)C(C)(C)C,489.15,12,"[1, 6]",2,True,CH,alkane
10601,2-ethyladamantane,CCC1C2CC3CC(C2)CC1C3,489.31,12,"[1, 6]",2,True,CH,alkane
10602,"8-ethyltricyclo[5.2.1.02,6]decane",CCC1CC2CC1C3C2CCC3,489.31,12,"[1, 6]",2,True,CH,alkane
10603,"2,2-dimethyladamantane",CC1(C2CC3CC(C2)CC1C3)C,489.55,12,"[1, 6]",2,True,CH,alkane
10604,"tetracyclo[6.2.1.13,6.02,7]dodeca-4,9-diene",C1C2C=CC1C3C2C4CC3C=C4,490.1,12,"[1, 6]",2,True,CH,alkene
10605,4-methylpentylbenzene,CC(C)CCCC1=CC=CC=C1,490.15,12,"[1, 6]",2,True,CH,aromatic
10606,"dodeca-1,3,5,7,9,11-hexayne",C#CC#CC#CC#CC#CC#C,490.4,12,"[1, 6]",2,True,CH,alkyne
10607,"9,10-dimethylidenetricyclo[5.3.0.02,8]deca-3,5-diene",C=C1C2C3C=CC=CC2C3C1=C,490.62,12,"[1, 6]",2,True,CH,alkene
10608,2-methylundecane,CCCCCCCCCC(C)C,490.65,12,"[1, 6]",2,True,CH,alkane
10609,"(2E,5E,7E,10E)-dodeca-2,5,7,10-tetraene",C/C=C/C/C=C/C=C/C/C=C/C,490.8,12,"[1, 6]",2,True,CH,alkene
10610,"tetracyclo[6.2.1.13,6.02,7]dodec-4-ene",C1CC2CC1C3C2C4CC3C=C4,490.94,12,"[1, 6]",2,True,CH,alkene
10611,diethyl 2-[(2-methylpropan-2-yl)oxycarbonylamino]propanedioate,CCOC(=O)C(C(=O)OCC)NC(=O)OC(C)(C)C,491.15,12,"[1, 6, 7, 8]",4,True,CHON,ester
10612,"7,8-dimethylidenetricyclo[4.2.2.02,5]dec-3-ene",C=C1C2CCC(C1=C)C3C2C=C3,491.46,12,"[1, 6]",2,True,CH,alkene
10613,"1,2,3,5,6-pentamethyl-4-methylidenebicyclo[3.1.0]hex-2-ene",CC1C2(C1(C(=C)C(=C2C)C)C)C,491.73,12,"[1, 6]",2,True,CH,alkene
10614,"tetracyclo[6.2.1.13,6.02,7]dodecane",C1CC2CC1C3C2C4CCC3C4,491.78,12,"[1, 6]",2,True,CH,alkane
10615,"tetracyclo[7.2.1.04,11.06,10]dodecane",C1CC2CC3CCC4C3C2C1C4,491.78,12,"[1, 6]",2,True,CH,alkane
10616,"dodeca-5,7-diyne",CCCCC#CC#CCCCC,492.16,12,"[1, 6]",2,True,CH,alkyne
10617,"dodeca-2,10-diyne",CC#CCCCCCCC#CC,492.16,12,"[1, 6]",2,True,CH,alkyne
10618,"dodeca-3,9-diyne",CCC#CCCCCC#CCC,492.16,12,"[1, 6]",2,True,CH,alkyne
10619,heptan-2-ylcyclopentane,CCCCCC(C)C1CCCC1,492.2,12,"[1, 6]",2,True,CH,alkane
10620,"3,4-dimethylidenetricyclo[4.2.2.02,5]decane",C=C1C2C3CCC(C2C1=C)CC3,492.3,12,"[1, 6]",2,True,CH,alkene
10621,dodec-3-yne,CCCCCCCCC#CCC,492.55,12,"[1, 6]",2,True,CH,alkyne
10622,3-hexylcyclohexene,CCCCCCC1CCCC=C1,492.87,12,"[1, 6]",2,True,CH,alkene
10623,3-methylpentylbenzene,CCC(C)CCC1=CC=CC=C1,493.15,12,"[1, 6]",2,True,CH,aromatic
10624,"4,4-dimethyl-2,3-dihydro-1H-naphthalene",CC1(CCCC2=CC=CC=C21)C,494.15,12,"[1, 6]",2,True,CH,aromatic