,Name,SMILES,Tb,C Atom,Atom,Count Unique Atom,Pass Screen,Atom2,Func. Group
8431,2-methyl-1-phenylprop-2-en-1-one,CC(=C)C(=O)C1=CC=CC=C1,473.15,10,"[1, 6, 8]",3,True,CHO,alkene
8432,"1,2-bis(ethenyl)benzene",C=CC1=CC=CC=C1C=C,473.15,10,"[1, 6]",2,True,CH,alkene
8433,2-(3-methylbutyl)pyridine,CC(C)CCC1=CC=CC=N1,473.15,10,"[1, 6, 7]",3,True,CHN,aromatic
8434,"3,7-dimethyloct-7-enal",CC(CCCC(=C)C)CC=O,473.18,10,"[1, 6, 8]",3,True,CHO,alkene
8435,"1,8-dimethoxyoctane",COCCCCCCCCOC,473.24,10,"[1, 6, 8]",3,True,CHO,ester
8436,1-methoxy-4-methylbicyclo[2.2.2]octane,CC12CCC(CC1)(CC2)OC,473.32,10,"[1, 6, 8]",3,True,CHO,ester
8437,"3,5,5-trimethylheptanal",CCC(C)(C)CC(C)CC=O,473.39,10,"[1, 6, 8]",3,True,CHO,aldehyde
8438,"6,6-dimethoxy-2-methylhept-2-ene",CC(=CCCC(C)(OC)OC)C,474.05,10,"[1, 6, 8]",3,True,CHO,ester
8439,2-methylnonan-3-one,CCCCCCC(=O)C(C)C,474.15,10,"[1, 6, 8]",3,True,CHO,ketone
8440,1-methyl-4-[(E)-prop-1-enyl]benzene,C/C=C/C1=CC=C(C=C1)C,474.15,10,"[1, 6]",2,True,CH,alkene
8441,5-(1-methoxyethylidene)bicyclo[2.2.1]hept-2-ene,CC(=C1CC2CC1C=C2)OC,474.25,10,"[1, 6, 8]",3,True,CHO,ester
8442,2-butyl-4-methylpyridine,CCCCC1=NC=CC(=C1)C,474.65,10,"[1, 6, 7]",3,True,CHN,aromatic
8443,"1,4-di(propan-2-yl)piperazine",CC(C)N1CCN(CC1)C(C)C,474.65,10,"[1, 6, 7]",3,True,CHN,amine
8444,4-methyl-2-propan-2-ylhexan-1-ol,CCC(C)CC(CO)C(C)C,474.65,10,"[1, 6, 8]",3,True,CHO,alcohol
8445,(2Z)-2-(1-methoxyethylidene)bicyclo[2.2.1]heptane,C/C(=C/1\CC2CCC1C2)/OC,475.09,10,"[1, 6, 8]",3,True,CHO,ester
8446,"3,4,4,5-tetramethylhexan-3-ol",CCC(C)(C(C)(C)C(C)C)O,475.1,10,"[1, 6, 8]",3,True,CHO,alcohol
8447,"5-methyl-2,3-dihydro-1H-indene",CC1=CC2=C(CCC2)C=C1,475.15,10,"[1, 6]",2,True,CH,aromatic
8448,N-ethyloctan-1-amine,CCCCCCCCNCC,475.15,10,"[1, 6, 7]",3,True,CHN,amine
8449,"4-(dimethylamino)-3,5-dimethylphenol",CC1=CC(=CC(=C1N(C)C)C)O,475.15,10,"[1, 6, 7, 8]",4,True,CHON,alcohol
8450,5-methylnonan-5-ol,CCCCC(C)(CCCC)O,475.15,10,"[1, 6, 8]",3,True,CHO,alcohol
8451,"1-cyclohexyl-2,5-dihydropyrrole",C1CCC(CC1)N2CC=CC2,475.23,10,"[1, 6, 7]",3,True,CHN,alkene
8452,"1-ethenyl-2,4-dimethylbenzene",CC1=CC(=C(C=C1)C=C)C,475.26,10,"[1, 6]",2,True,CH,alkene
8453,"1,3,3-trimethylbicyclo[2.2.1]heptan-2-ol",CC1(C2CCC(C2)(C1O)C)C,475.65,10,"[1, 6, 8]",3,True,CHO,alcohol
8454,"1,4,5,8-tetrahydronaphthalene",C1C=CCC2=C1CC=CC2,475.74,10,"[1, 6]",2,True,CH,alkene
8455,1-azabicyclo[3.3.3]undecane,C1CC2CCCN(C1)CCC2,476.07,10,"[1, 6, 7]",3,True,CHN,amine
8456,"1,2,3,4,5,8-hexahydronaphthalene",C1CCC2=C(C1)CC=CC2,476.58,10,"[1, 6]",2,True,CH,alkene
8457,oct-7-ynyl acetate,CC(=O)OCCCCCCC#C,476.74,10,"[1, 6, 8]",3,True,CHO,ester
8458,(Z)-1-(1-ethoxyethoxy)hex-3-ene,CC/C=C\CCOC(C)OCC,476.96,10,"[1, 6, 8]",3,True,CHO,ester
8459,(E)-1-(1-ethoxyethoxy)hex-2-ene,CCC/C=C/COC(C)OCC,476.96,10,"[1, 6, 8]",3,True,CHO,ester
8460,"(E)-1,1-diethoxyhex-2-ene",CCC/C=C/C(OCC)OCC,476.96,10,"[1, 6, 8]",3,True,CHO,ester
8461,"(E)-6,6-diethoxyhex-2-ene",CCOC(CC/C=C/C)OCC,476.96,10,"[1, 6, 8]",3,True,CHO,ester
8462,propoxymethylbenzene,CCCOCC1=CC=CC=C1,477.15,10,"[1, 6, 8]",3,True,CHO,ester
8463,4-methyl-1-propan-2-ylbicyclo[3.1.0]hexan-3-one,CC1C2CC2(CC1=O)C(C)C,477.15,10,"[1, 6, 8]",3,True,CHO,ketone
8464,5-aminonaphthalen-2-ol,C1=CC2=C(C=CC(=C2)O)C(=C1)N,477.15,10,"[1, 6, 7, 8]",4,True,CHON,alcohol
8465,"1,2,3,4,5,6,7,8-octahydronaphthalene",C1CCC2=C(C1)CCCC2,477.42,10,"[1, 6]",2,True,CH,alkene
8466,"1,2,3,4,5,6,7,8-octahydroazulene",C1CCC2=C(CC1)CCC2,477.42,10,"[1, 6]",2,True,CH,alkene
8467,prop-2-enoxymethylbenzene,C=CCOCC1=CC=CC=C1,477.65,10,"[1, 6, 8]",3,True,CHO,ester
8468,1-methylazecane,CN1CCCCCCCCC1,477.87,10,"[1, 6, 7]",3,True,CHN,amine
8469,"2,2,6-trimethylhept-5-enal",CC(=CCCC(C)(C)C=O)C,477.87,10,"[1, 6, 8]",3,True,CHO,alkene
8470,"4,6-dimethyloct-7-en-3-one",CCC(=O)C(C)CC(C)C=C,478.07,10,"[1, 6, 8]",3,True,CHO,alkene
8471,4-methylidene-2-(2-methylprop-1-enyl)oxane,CC(=CC1CC(=C)CCO1)C,478.1,10,"[1, 6, 8]",3,True,CHO,ester
8472,N-(2-methylbutyl)pentan-1-amine,CCCCCNCC(C)CC,478.13,10,"[1, 6, 7]",3,True,CHN,amine
8473,"1,6-bis(ethenoxy)hexane",C=COCCCCCCOC=C,478.15,10,"[1, 6, 8]",3,True,CHO,ester
8474,"8-oxatricyclo[5.3.1.02,6]undecan-9-one",C1CC2C(C1)C3CC2CC(=O)O3,478.15,10,"[1, 6, 8]",3,True,CHO,ester
8475,"4-methyl-2,3-dihydro-1H-indene",CC1=C2CCCC2=CC=C1,478.45,10,"[1, 6]",2,True,CH,aromatic
8476,"2,2-dimethyloctan-3-one",CCCCCC(=O)C(C)(C)C,479.04,10,"[1, 6, 8]",3,True,CHO,ketone
8477,2-methylnon-2-en-4-one,CCCCCC(=O)C=C(C)C,479.15,10,"[1, 6, 8]",3,True,CHO,alkene
8478,"8,8-dimethoxytricyclo[3.2.1.02,4]oct-6-ene",COC1(C2C=CC1C3C2C3)OC,479.25,10,"[1, 6, 8]",3,True,CHO,ester
8479,"4-methyl-1,5-dioxaspiro[5.5]undecane",CC1CCOC2(O1)CCCCC2,479.65,10,"[1, 6, 8]",3,True,CHO,ester
8480,1-methyl-2-prop-2-enoxybenzene,CC1=CC=CC=C1OCC=C,479.65,10,"[1, 6, 8]",3,True,CHO,ester
8481,3-cyclopent-2-en-1-yloxycyclopentene,C1CC(C=C1)OC2CCC=C2,479.7,10,"[1, 6, 8]",3,True,CHO,ester
8482,2-pentylpyridine,CCCCCC1=CC=CC=N1,479.9,10,"[1, 6, 7]",3,True,CHN,aromatic
8483,"8,8-dimethoxytricyclo[3.2.1.02,4]octane",COC1(C2CCC1C3C2C3)OC,480.09,10,"[1, 6, 8]",3,True,CHO,ester
8484,N-butylcyclohexanamine,CCCCNC1CCCCC1,480.15,10,"[1, 6, 7]",3,True,CHN,amine
8485,2-bicyclo[2.2.1]hept-5-enylmethyl acetate,CC(=O)OCC1CC2CC1C=C2,480.15,10,"[1, 6, 8]",3,True,CHO,ester
8486,N-methylnonan-1-amine,CCCCCCCCCNC,480.15,10,"[1, 6, 7]",3,True,CHN,amine
8487,[[methyl(nitroso)amino]-phenylmethyl] acetate,CC(=O)OC(C1=CC=CC=C1)N(C)N=O,480.15,10,"[1, 6, 7, 8]",4,True,CHON,ester
8488,"2,2-dimethylpropyl 2,2-dimethylpropanoate",CC(C)(C)COC(=O)C(C)(C)C,480.16,10,"[1, 6, 8]",3,True,CHO,ester
8489,"2-methylbutan-2-yl 2,2-dimethylpropanoate",CCC(C)(C)OC(=O)C(C)(C)C,480.16,10,"[1, 6, 8]",3,True,CHO,ester
8490,(E)-5-methyl-2-propan-2-ylhex-2-enal,CC(C)C/C=C(/C=O)\C(C)C,480.22,10,"[1, 6, 8]",3,True,CHO,alkene
8491,"2,6-dimethyloct-5-enal",CCC(=CCCC(C)C=O)C,480.66,10,"[1, 6, 8]",3,True,CHO,alkene
8492,4-methylidene-1-propan-2-ylbicyclo[3.1.0]hexan-3-ol,CC(C)C12CC1C(=C)C(C2)O,481.15,10,"[1, 6, 8]",3,True,CHO,alkene
8493,(Z)-dec-4-enal,CCCCC/C=C\CCC=O,481.22,10,"[1, 6, 8]",3,True,CHO,alkene
8494,2-(2-methylhexan-2-yloxymethyl)oxirane,CCCCC(C)(C)OCC1CO1,481.28,10,"[1, 6, 8]",3,True,CHO,ester
8495,cyclopentyloxycyclopentane,C1CCC(C1)OC2CCCC2,481.38,10,"[1, 6, 8]",3,True,CHO,ester
8496,"2,7-diazatricyclo[6.2.2.02,7]dodec-4-ene",C1CC2CCC1N3N2CC=CC3,481.6,10,"[1, 6, 7]",3,True,CHN,alkene
8497,1-(2-piperazin-1-ylethyl)piperazine,C1CN(CCN1)CCN2CCNCC2,481.65,10,"[1, 6, 7]",3,True,CHN,amine
8498,2-propylhept-2-enal,CCCCC=C(CCC)C=O,481.65,10,"[1, 6, 8]",3,True,CHO,alkene
8499,"2,6,6-trimethylcycloheptan-1-one",CC1CCCC(CC1=O)(C)C,481.65,10,"[1, 6, 8]",3,True,CHO,ketone
8500,3-ethyloctan-4-one,CCCCC(=O)C(CC)CC,481.83,10,"[1, 6, 8]",3,True,CHO,ketone
8501,3-methylnonan-4-one,CCCCCC(=O)C(C)CC,481.83,10,"[1, 6, 8]",3,True,CHO,ketone
8502,4-methylnonan-5-one,CCCCC(=O)C(C)CCC,481.83,10,"[1, 6, 8]",3,True,CHO,ketone
8503,"2,2,6-trimethyl-1-oxaspiro[2.5]oct-5-ene",CC1=CCC2(CC1)C(O2)(C)C,481.99,10,"[1, 6, 8]",3,True,CHO,ester
8504,"1-N,1-N,1-N',1-N',2-N,2-N,2-N',2-N'-octamethylethene-1,1,2,2-tetramine",CN(C)C(=C(N(C)C)N(C)C)N(C)C,482.08,10,"[1, 6, 7]",3,True,CHN,alkene
8505,1-phenyl-N-propylmethanimine,CCCN=CC1=CC=CC=C1,482.15,10,"[1, 6, 7]",3,True,CHN,aromatic
8506,4-methyl-1-propan-2-ylbicyclo[3.1.0]hexan-3-ol,CC1C2CC2(CC1O)C(C)C,482.15,10,"[1, 6, 8]",3,True,CHO,alcohol
8507,"1,5-diazatricyclo[4.2.2.22,5]dodecane",C1CN2CCC1N3CCC2CC3,482.44,10,"[1, 6, 7]",3,True,CHN,amine
8508,"(5E)-2,6-dimethylocta-5,7-dien-4-one",CC(C)CC(=O)/C=C(\C)/C=C,482.55,10,"[1, 6, 8]",3,True,CHO,alkene
8509,"2,6-dimethylocta-5,7-dien-4-one",CC(C)CC(=O)C=C(C)C=C,482.55,10,"[1, 6, 8]",3,True,CHO,alkene
8510,3-(cyclohexen-1-yl)butan-2-one,CC(C1=CCCCC1)C(=O)C,482.65,10,"[1, 6, 8]",3,True,CHO,alkene
8511,2-ethylbutyl 2-methylprop-2-enoate,CCC(CC)COC(=O)C(=C)C,482.74,10,"[1, 6, 8]",3,True,CHO,ester
8512,4-methylpentyl 2-methylprop-2-enoate,CC(C)CCCOC(=O)C(=C)C,482.74,10,"[1, 6, 8]",3,True,CHO,ester
8513,3-methylbut-3-enyl 3-methylbutanoate,CC(C)CC(=O)OCCC(=C)C,482.74,10,"[1, 6, 8]",3,True,CHO,ester
8514,3-methylbutyl 2-methylidenebutanoate,CCC(=C)C(=O)OCCC(C)C,482.74,10,"[1, 6, 8]",3,True,CHO,ester
8515,oct-1-en-3-yl acetate,CCCCCC(C=C)OC(=O)C,482.86,10,"[1, 6, 8]",3,True,CHO,ester
8516,3-methylbutyl pent-4-enoate,CC(C)CCOC(=O)CCC=C,482.86,10,"[1, 6, 8]",3,True,CHO,ester
8517,"2,2-dimethylpropyl 3-methylbutanoate",CC(C)CC(=O)OCC(C)(C)C,482.95,10,"[1, 6, 8]",3,True,CHO,ester
8518,"4-methyl-2-(2-methylprop-1-enyl)-3,6-dihydro-2H-pyran",CC1=CCOC(C1)C=C(C)C,483.08,10,"[1, 6, 8]",3,True,CHO,ester
8519,5-methyl-2-propan-2-ylcyclohexan-1-one,CC1CCC(C(=O)C1)C(C)C,483.15,10,"[1, 6, 8]",3,True,CHO,ketone
8520,1-cyclopentylpiperidine,C1CCN(CC1)C2CCCC2,483.15,10,"[1, 6, 7]",3,True,CHN,amine
8521,heptyl prop-2-enoate,CCCCCCCOC(=O)C=C,483.3,10,"[1, 6, 8]",3,True,CHO,ester
8522,methyl non-8-enoate,COC(=O)CCCCCCC=C,483.3,10,"[1, 6, 8]",3,True,CHO,ester
8523,"pentyl 2,2-dimethylpropanoate",CCCCCOC(=O)C(C)(C)C,483.39,10,"[1, 6, 8]",3,True,CHO,ester
8524,tert-butyl hexanoate,CCCCCC(=O)OC(C)(C)C,483.39,10,"[1, 6, 8]",3,True,CHO,ester
8525,1-methyl-4-propoxybenzene,CCCOC1=CC=C(C=C1)C,483.55,10,"[1, 6, 8]",3,True,CHO,ester
8526,3-phenylbutan-2-one,CC(C1=CC=CC=C1)C(=O)C,484.15,10,"[1, 6, 8]",3,True,CHO,aromatic
8527,decan-5-one,CCCCCC(=O)CCCC,484.15,10,"[1, 6, 8]",3,True,CHO,ketone
8528,5-methyl-2-propan-2-ylhexan-1-ol,CC(C)CCC(CO)C(C)C,484.15,10,"[1, 6, 8]",3,True,CHO,alcohol
8529,(2R)-2-phenylbutan-2-ol,CC[C@](C)(C1=CC=CC=C1)O,484.15,10,"[1, 6, 8]",3,True,CHO,aromatic
8530,"3,3-dimethyl-4-pentan-2-yloxetan-2-one",CCCC(C)C1C(C(=O)O1)(C)C,484.22,10,"[1, 6, 8]",3,True,CHO,ester
8531,"ethyl 2,2,3,3-tetramethylcyclopropane-1-carboxylate",CCOC(=O)C1C(C1(C)C)(C)C,484.5,10,"[1, 6, 8]",3,True,CHO,ester
8532,1-(cyclohexen-1-yl)pyrrolidine,C1CCC(=CC1)N2CCCC2,484.88,10,"[1, 6, 7]",3,True,CHN,alkene
8533,1-(cyclopenten-1-yl)piperidine,C1CCN(CC1)C2=CCCC2,484.88,10,"[1, 6, 7]",3,True,CHN,alkene
8534,"(2Z)-3,7-dimethylocta-2,6-dienal",CC(=CCC/C(=C\C=O)/C)C,485.14,10,"[1, 6, 8]",3,True,CHO,alkene
8535,2-oct-7-enyloxirane,C=CCCCCCCC1CO1,485.15,10,"[1, 6, 8]",3,True,CHO,ester
8536,"3,4-ditert-butyl-1,3,4-oxadiazolidine",CC(C)(C)N1COCN1C(C)(C)C,485.18,10,"[1, 6, 7, 8]",4,True,CHON,ester
8537,3-methylbutan-2-yl 2-methylbutanoate,CCC(C)C(=O)OC(C)C(C)C,485.3,10,"[1, 6, 8]",3,True,CHO,ester
8538,"(2E,4Z)-deca-2,4-dienal",CCCCC/C=C\C=C\C=O,485.38,10,"[1, 6, 8]",3,True,CHO,alkene
8539,1-methoxy-2-propan-2-yloxybenzene,CC(C)OC1=CC=CC=C1OC,485.65,10,"[1, 6, 8]",3,True,CHO,ester
8540,1-methyl-3-prop-2-enoxybenzene,CC1=CC(=CC=C1)OCC=C,485.65,10,"[1, 6, 8]",3,True,CHO,ester
8541,"6,6-dimethylbicyclo[3.1.1]heptane-2-carbaldehyde",CC1(C2CCC(C1C2)C=O)C,485.71,10,"[1, 6, 8]",3,True,CHO,aldehyde
8542,2-methylbutyl 3-methylbutanoate,CCC(C)COC(=O)CC(C)C,485.74,10,"[1, 6, 8]",3,True,CHO,ester
8543,2-methylpropyl 2-methylpentanoate,CCCC(C)C(=O)OCC(C)C,485.74,10,"[1, 6, 8]",3,True,CHO,ester
8544,3-methylbutyl 2-methylbutanoate,CCC(C)C(=O)OCCC(C)C,485.74,10,"[1, 6, 8]",3,True,CHO,ester
8545,pentan-2-yl 2-methylbutanoate,CCCC(C)OC(=O)C(C)CC,485.74,10,"[1, 6, 8]",3,True,CHO,ester
8546,2-methylpropyl 2-ethylbutanoate,CCC(CC)C(=O)OCC(C)C,485.74,10,"[1, 6, 8]",3,True,CHO,ester
8547,"3,4-dimethylhexyl acetate",CCC(C)C(C)CCOC(=O)C,485.74,10,"[1, 6, 8]",3,True,CHO,ester
8548,"2,6,6-trimethylbicyclo[3.1.1]heptan-3-one",CC1C2CC(C2(C)C)CC1=O,486.15,10,"[1, 6, 8]",3,True,CHO,ketone
8549,ethyl 3-isocyanatobenzoate,CCOC(=O)C1=CC(=CC=C1)N=C=O,486.15,10,"[1, 6, 7, 8]",4,True,CHON,ester
8550,octan-2-yl acetate,CCCCCCC(C)OC(=O)C,486.18,10,"[1, 6, 8]",3,True,CHO,ester
8551,ethyl 2-ethylhexanoate,CCCCC(CC)C(=O)OCC,486.18,10,"[1, 6, 8]",3,True,CHO,ester
8552,octan-3-yl acetate,CCCCCC(CC)OC(=O)C,486.18,10,"[1, 6, 8]",3,True,CHO,ester
8553,butyl 2-ethylbutanoate,CCCCOC(=O)C(CC)CC,486.18,10,"[1, 6, 8]",3,True,CHO,ester
8554,octan-4-yl acetate,CCCCC(CCC)OC(=O)C,486.18,10,"[1, 6, 8]",3,True,CHO,ester
8555,butyl 2-methylpentanoate,CCCCOC(=O)C(C)CCC,486.18,10,"[1, 6, 8]",3,True,CHO,ester
8556,methyl 4-methyloctanoate,CCCCC(C)CCC(=O)OC,486.18,10,"[1, 6, 8]",3,True,CHO,ester
8557,pentyl 3-methylbutanoate,CCCCCOC(=O)CC(C)C,486.18,10,"[1, 6, 8]",3,True,CHO,ester
8558,6-methylheptyl acetate,CC(C)CCCCCOC(=O)C,486.18,10,"[1, 6, 8]",3,True,CHO,ester
8559,propan-2-yl heptanoate,CCCCCCC(=O)OC(C)C,486.18,10,"[1, 6, 8]",3,True,CHO,ester
8560,2-methylbutyl pentanoate,CCCCC(=O)OCC(C)CC,486.18,10,"[1, 6, 8]",3,True,CHO,ester
8561,pentyl 2-methylbutanoate,CCCCCOC(=O)C(C)CC,486.18,10,"[1, 6, 8]",3,True,CHO,ester
8562,(E)-dec-3-en-2-one,CCCCCC/C=C/C(=O)C,486.43,10,"[1, 6, 8]",3,True,CHO,alkene
8563,1-methoxy-4-propan-2-ylbenzene,CC(C)C1=CC=C(C=C1)OC,486.65,10,"[1, 6, 8]",3,True,CHO,ester
8564,"2,2-dimethoxy-1-methylbicyclo[2.2.1]heptane",CC12CCC(C1)CC2(OC)OC,486.8,10,"[1, 6, 8]",3,True,CHO,ester
8565,"4,4,7,7-tetramethyl-3-oxabicyclo[4.1.0]heptan-2-one",CC1(CC2C(C2(C)C)C(=O)O1)C,486.97,10,"[1, 6, 8]",3,True,CHO,ester
8566,2-methyl-1-phenylpropan-1-amine,CC(C)C(C1=CC=CC=C1)N,487.15,10,"[1, 6, 7]",3,True,CHN,aromatic
8567,1-cyclohexylpyrrolidine,C1CCC(CC1)N2CCCC2,487.15,10,"[1, 6, 7]",3,True,CHN,amine
8568,"7-hydroxy-3,4-dihydro-2H-naphthalen-1-one",C1CC2=C(C=C(C=C2)O)C(=O)C1,487.15,10,"[1, 6, 8]",3,True,CHO,ketone
8569,2-[bis(2-methylpropyl)amino]ethanol,CC(C)CN(CCO)CC(C)C,487.15,10,"[1, 6, 7, 8]",4,True,CHON,alcohol
8570,"2,2,6-trimethylcyclohexane-1-carbaldehyde",CC1CCCC(C1C=O)(C)C,487.51,10,"[1, 6, 8]",3,True,CHO,aldehyde
8571,"1-methoxy-2,3,5-trimethylbenzene",CC1=CC(=C(C(=C1)OC)C)C,487.65,10,"[1, 6, 8]",3,True,CHO,ester
8572,1-methyl-4-prop-2-enoxybenzene,CC1=CC=C(C=C1)OCC=C,487.65,10,"[1, 6, 8]",3,True,CHO,ester
8573,"2,2-dimethyl-3-[3-(oxiran-2-yl)but-3-enyl]oxirane",CC1(C(O1)CCC(=C)C2CO2)C,487.91,10,"[1, 6, 8]",3,True,CHO,ester
8574,1-(4-ethoxybut-2-ynyl)pyrrolidine,CCOCC#CCN1CCCC1,487.94,10,"[1, 6, 7, 8]",4,True,CHON,ester
8575,1-phenylbutan-2-ol,CCC(CC1=CC=CC=C1)O,488.15,10,"[1, 6, 8]",3,True,CHO,aromatic
8576,"(2,6-dimethylphenyl) acetate",CC1=C(C(=CC=C1)C)OC(=O)C,488.15,10,"[1, 6, 8]",3,True,CHO,ester
8577,"(2,6,6-trimethylcyclohex-2-en-1-yl)methanol",CC1=CCCC(C1CO)(C)C,488.15,10,"[1, 6, 8]",3,True,CHO,alkene
8578,3-propan-2-ylheptan-1-ol,CCCCC(CCO)C(C)C,488.35,10,"[1, 6, 8]",3,True,CHO,alcohol
8579,3-[2-(2-prop-2-enoxyethoxy)ethoxy]prop-1-ene,C=CCOCCOCCOCC=C,489.02,10,"[1, 6, 8]",3,True,CHO,ester
8580,4-methylnonan-1-ol,CCCCCC(C)CCCO,489.15,10,"[1, 6, 8]",3,True,CHO,alcohol
8581,"4,10-dioxapentacyclo[6.3.1.02,7.03,5.09,11]dodecane",C1C2C3CC4C(C3C1C5C2O5)O4,489.18,10,"[1, 6, 8]",3,True,CHO,ester
8582,"1,2,2,6,6-pentamethylpiperidin-4-amine",CC1(CC(CC(N1C)(C)C)N)C,489.65,10,"[1, 6, 7]",3,True,CHN,amine
8583,3-methylbutyl 3-methylbut-2-enoate,CC(C)CCOC(=O)C=C(C)C,490.22,10,"[1, 6, 8]",3,True,CHO,ester
8584,2-methylbutyl (Z)-2-methylbut-2-enoate,CCC(C)COC(=O)/C(=C\C)/C,490.22,10,"[1, 6, 8]",3,True,CHO,ester
8585,[(E)-3-methylpent-3-enyl] 2-methylpropanoate,C/C=C(\C)/CCOC(=O)C(C)C,490.22,10,"[1, 6, 8]",3,True,CHO,ester
8586,[(Z)-hex-3-enyl] 2-methylpropanoate,CC/C=C\CCOC(=O)C(C)C,490.34,10,"[1, 6, 8]",3,True,CHO,ester
8587,2-ethyl-1-benzofuran,CCC1=CC2=CC=CC=C2O1,490.65,10,"[1, 6, 8]",3,True,CHO,aromatic
8588,pentyl (Z)-2-methylbut-2-enoate,CCCCCOC(=O)/C(=C\C)/C,490.66,10,"[1, 6, 8]",3,True,CHO,ester
8589,pentyl 3-methylbut-2-enoate,CCCCCOC(=O)C=C(C)C,490.66,10,"[1, 6, 8]",3,True,CHO,ester
8590,methyl (E)-non-2-enoate,CCCCCC/C=C/C(=O)OC,490.78,10,"[1, 6, 8]",3,True,CHO,ester
8591,ethyl oct-3-enoate,CCCCC=CCC(=O)OCC,490.78,10,"[1, 6, 8]",3,True,CHO,ester
8592,ethyl (E)-oct-2-enoate,CCCCC/C=C/C(=O)OCC,490.78,10,"[1, 6, 8]",3,True,CHO,ester
8593,[(Z)-hex-3-enyl] butanoate,CCCC(=O)OCC/C=C\CC,490.78,10,"[1, 6, 8]",3,True,CHO,ester
8594,hexyl (E)-but-2-enoate,CCCCCCOC(=O)/C=C/C,490.78,10,"[1, 6, 8]",3,True,CHO,ester
8595,[(E)-hex-2-enyl] butanoate,CCC/C=C/COC(=O)CCC,490.78,10,"[1, 6, 8]",3,True,CHO,ester
8596,[(Z)-oct-3-enyl] acetate,CCCC/C=C\CCOC(=O)C,490.78,10,"[1, 6, 8]",3,True,CHO,ester
8597,[(Z)-hex-4-enyl] butanoate,CCCC(=O)OCCC/C=C\C,490.78,10,"[1, 6, 8]",3,True,CHO,ester
8598,ethyl (E)-oct-4-enoate,CCC/C=C/CCC(=O)OCC,490.78,10,"[1, 6, 8]",3,True,CHO,ester
8599,ethyl oct-4-enoate,CCCC=CCCC(=O)OCC,490.78,10,"[1, 6, 8]",3,True,CHO,ester
8600,4-(2-methylpropyl)cyclohexan-1-one,CC(C)CC1CCC(=O)CC1,491.15,10,"[1, 6, 8]",3,True,CHO,ketone
8601,2-(2-methoxypropoxy)-1-prop-2-enoxypropane,CC(COCC=C)OCC(C)OC,491.46,10,"[1, 6, 8]",3,True,CHO,ester
8602,2-butylhexan-1-ol,CCCCC(CCCC)CO,491.65,10,"[1, 6, 8]",3,True,CHO,alcohol
8603,"2-(2,2,3-trimethylcyclopent-3-en-1-yl)acetaldehyde",CC1=CCC(C1(C)C)CC=O,492.05,10,"[1, 6, 8]",3,True,CHO,alkene
8604,"2,6-diethylphenol",CCC1=C(C(=CC=C1)CC)O,492.15,10,"[1, 6, 8]",3,True,CHO,aromatic
8605,"4,6-dimethyl-1-benzofuran",CC1=CC(=C2C=COC2=C1)C,492.15,10,"[1, 6, 8]",3,True,CHO,aromatic
8606,1-methoxy-3-(3-prop-2-enoxypropoxy)propane,COCCCOCCCOCC=C,492.34,10,"[1, 6, 8]",3,True,CHO,ester
8607,2-[2-(2-ethoxyethoxy)ethoxy]-2-methylpropane,CCOCCOCCOC(C)(C)C,492.43,10,"[1, 6, 8]",3,True,CHO,ester
8608,"(2E)-3,7-dimethylocta-2,6-dienenitrile",CC(=CCC/C(=C/C#N)/C)C,492.65,10,"[1, 6, 7]",3,True,CHN,alkene
8609,1-(2-methylphenyl)propan-1-one,CCC(=O)C1=CC=CC=C1C,492.65,10,"[1, 6, 8]",3,True,CHO,aromatic
8610,"6,6-dimethyl-3-propan-2-yloxan-2-one",CC(C)C1CCC(OC1=O)(C)C,492.76,10,"[1, 6, 8]",3,True,CHO,ester
8611,2-propyl-1H-benzimidazole,CCCC1=NC2=CC=CC=C2N1,493.15,10,"[1, 6, 7]",3,True,CHN,aromatic
8612,4-methyl-1-propan-2-ylbicyclo[3.1.0]hex-3-en-2-one,CC1=CC(=O)C2(C1C2)C(C)C,493.15,10,"[1, 6, 8]",3,True,CHO,alkene
8613,4-methyl-N-propan-2-ylaniline,CC1=CC=C(C=C1)NC(C)C,493.15,10,"[1, 6, 7]",3,True,CHN,aromatic
8614,"2,5-dimethyl-1-benzofuran",CC1=CC2=C(C=C1)OC(=C2)C,493.15,10,"[1, 6, 8]",3,True,CHO,aromatic
8615,"1,7-diazabicyclo[5.3.2]dodecane",C1CCN2CCCN(CC1)CC2,493.18,10,"[1, 6, 7]",3,True,CHN,amine
8616,"1,6-diazabicyclo[4.4.2]dodecane",C1CCN2CCCCN(C1)CC2,493.18,10,"[1, 6, 7]",3,True,CHN,amine
8617,"1,8-diazabicyclo[6.3.1]dodecane",C1CCCN2CCCN(C2)CC1,493.18,10,"[1, 6, 7]",3,True,CHN,amine
8618,"8-tricyclo[3.2.1.02,4]octanyl acetate",CC(=O)OC1C2CCC1C3C2C3,493.23,10,"[1, 6, 8]",3,True,CHO,ester
8619,3-hexyloxolan-2-one,CCCCCCC1CCOC1=O,493.36,10,"[1, 6, 8]",3,True,CHO,ester
8620,4-hexyloxolan-2-one,CCCCCCC1CC(=O)OC1,493.36,10,"[1, 6, 8]",3,True,CHO,ester
8621,"2-methyl-N,N-di(propan-2-yl)propanamide",CC(C)C(=O)N(C(C)C)C(C)C,493.39,10,"[1, 6, 7, 8]",4,True,CHON,amide
8622,4-butyl-4-ethyloxolan-2-one,CCCCC1(CC(=O)OC1)CC,493.6,10,"[1, 6, 8]",3,True,CHO,ester
8623,"5,6-dimethyl-1-benzofuran",CC1=CC2=C(C=C1C)OC=C2,494.15,10,"[1, 6, 8]",3,True,CHO,aromatic
8624,1-phenylbutan-1-amine,CCCC(C1=CC=CC=C1)N,494.15,10,"[1, 6, 7]",3,True,CHN,aromatic
8625,"[(2E,4E)-hexa-2,4-dienyl] 2-methylpropanoate",C/C=C/C=C/COC(=O)C(C)C,494.5,10,"[1, 6, 8]",3,True,CHO,ester
8626,"2-methylpropyl (2E,4E)-hexa-2,4-dienoate",C/C=C/C=C/C(=O)OCC(C)C,494.5,10,"[1, 6, 8]",3,True,CHO,ester
8627,"pentacyclo[5.3.0.02,5.03,9.04,8]decan-6-one",C1C2C3C4C1C5C2C3C4C5=O,494.56,10,"[1, 6, 8]",3,True,CHO,ketone
8628,[(E)-2-methylbut-2-enyl] (E)-2-methylbut-2-enoate,C/C=C(\C)/COC(=O)/C(=C/C)/C,494.7,10,"[1, 6, 8]",3,True,CHO,ester
8629,2-methylbut-2-enyl 2-methylbut-2-enoate,CC=C(C)COC(=O)C(=CC)C,494.7,10,"[1, 6, 8]",3,True,CHO,ester
8630,"N,N-dimethyloctanamide",CCCCCCCC(=O)N(C)C,494.71,10,"[1, 6, 7, 8]",4,True,CHON,amide
8631,"N,N-dibutylacetamide",CCCCN(CCCC)C(=O)C,494.71,10,"[1, 6, 7, 8]",4,True,CHON,amide
8632,"1,1,3-triethoxybutane",CCOC(C)CC(OCC)OCC,494.78,10,"[1, 6, 8]",3,True,CHO,ester
8633,dibutan-2-yl oxalate,CCC(C)OC(=O)C(=O)OC(C)CC,494.9,10,"[1, 6, 8]",3,True,CHO,ester
8634,"1,4-dimethoxybicyclo[2.2.2]oct-2-ene",COC12CCC(CC1)(C=C2)OC,494.9,10,"[1, 6, 8]",3,True,CHO,ester
8635,"butyl (2E,4E)-hexa-2,4-dienoate",CCCCOC(=O)/C=C/C=C/C,494.94,10,"[1, 6, 8]",3,True,CHO,ester
8636,"hexa-2,4-dienyl butanoate",CCCC(=O)OCC=CC=CC,494.94,10,"[1, 6, 8]",3,True,CHO,ester