,Name,SMILES,Tb,C Atom,Atom,Count Unique Atom,Pass Screen,Atom2,Func. Group
5514,7-methylazepan-2-one,CC1CCCCC(=O)N1,499.95,7,"[1, 6, 7, 8]",4,True,CHON,amide
5515,5-methylazepan-2-one,CC1CCC(=O)NCC1,499.95,7,"[1, 6, 7, 8]",4,True,CHON,amide
5516,methyl 2-oxocyclopentane-1-carboxylate,COC(=O)C1CCCC1=O,501.08,7,"[1, 6, 8]",3,True,CHO,ester
5517,methyl 3-oxocyclopentane-1-carboxylate,COC(=O)C1CCC(=O)C1,501.08,7,"[1, 6, 8]",3,True,CHO,ester
5518,"4-methoxy-2,5-dimethylfuran-3-one",CC1C(=O)C(=C(O1)C)OC,501.35,7,"[1, 6, 8]",3,True,CHO,ester
5519,2-cyclopentylacetamide,C1CCC(C1)CC(=O)N,501.44,7,"[1, 6, 7, 8]",4,True,CHON,amide
5520,1-(1H-pyrrol-2-yl)propan-1-one,CCC(=O)C1=CC=CN1,501.65,7,"[1, 6, 7, 8]",4,True,CHON,aromatic
5521,7-oxabicyclo[4.1.0]heptane-3-carbonitrile,C1CC2C(O2)CC1C#N,501.87,7,"[1, 6, 7, 8]",4,True,CHON,ester
5522,"4,4-dimethylpentanoic acid",CC(C)(C)CCC(=O)O,502.04,7,"[1, 6, 8]",3,True,CHO,alcohol
5523,dimethyl 2-(methoxymethylidene)propanedioate,COC=C(C(=O)OC)C(=O)OC,502.66,7,"[1, 6, 8]",3,True,CHO,ester
5524,"2,2-diethoxypropanenitrile",CCOC(C)(C#N)OCC,503.45,7,"[1, 6, 7, 8]",4,True,CHON,ester
5525,1-methyl-2-phenylhydrazine,CNNC1=CC=CC=C1,504.15,7,"[1, 6, 7]",3,True,CHN,aromatic
5526,bis(2-methoxyethyl) carbonate,COCCOC(=O)OCCOC,504.15,7,"[1, 6, 8]",3,True,CHO,ester
5527,"2,6-dimethylpyridin-3-amine",CC1=NC(=C(C=C1)N)C,504.65,7,"[1, 6, 7]",3,True,CHN,aromatic
5528,"N'-(3-methoxypropyl)propane-1,3-diamine",COCCCNCCCN,504.88,7,"[1, 6, 7, 8]",4,True,CHON,ester
5529,4-hydroxy-5-methylhexan-2-one,CC(C)C(CC(=O)C)O,504.93,7,"[1, 6, 8]",3,True,CHO,alcohol
5530,5-hydroxy-2-methylhexan-3-one,CC(C)C(=O)CC(C)O,504.93,7,"[1, 6, 8]",3,True,CHO,alcohol
5531,cyclohexanecarboxamide,C1CCC(CC1)C(=O)N,505.71,7,"[1, 6, 7, 8]",4,True,CHON,amide
5532,"3,4-dimethylcyclopentane-1,2-dione",CC1CC(=O)C(=O)C1C,506.01,7,"[1, 6, 8]",3,True,CHO,ketone
5533,"3,5-dimethylcyclopentane-1,2-dione",CC1CC(C(=O)C1=O)C,506.01,7,"[1, 6, 8]",3,True,CHO,ketone
5534,"(2E)-hepta-2,6-dienoic acid",C=CCC/C=C/C(=O)O,506.11,7,"[1, 6, 8]",3,True,CHO,alkene
5535,"3,3-diethoxypropanenitrile",CCOC(CC#N)OCC,506.24,7,"[1, 6, 7, 8]",4,True,CHON,ester
5536,1-hydroxybutan-2-yl prop-2-enoate,CCC(CO)OC(=O)C=C,506.4,7,"[1, 6, 8]",3,True,CHO,ester
5537,3-hydroxypropyl 2-methylprop-2-enoate,CC(=C)C(=O)OCCCO,506.72,7,"[1, 6, 8]",3,True,CHO,ester
5538,4-hydroxybutyl prop-2-enoate,C=CC(=O)OCCCCO,506.84,7,"[1, 6, 8]",3,True,CHO,ester
5539,ethyl 2-hydroxy-2-methylbutanoate,CCC(C)(C(=O)OCC)O,506.93,7,"[1, 6, 8]",3,True,CHO,ester
5540,"2-hydroxyethyl 2,2-dimethylpropanoate",CC(C)(C)C(=O)OCCO,506.93,7,"[1, 6, 8]",3,True,CHO,ester
5541,"4,4-dimethyl-5-oxopentanenitrile",CC(C)(CCC#N)C=O,507.27,7,"[1, 6, 7, 8]",4,True,CHON,aldehyde
5542,"2,4,8,10-tetraoxaspiro[5.5]undecane",C1C2(COCO1)COCOC2,507.3,7,"[1, 6, 8]",3,True,CHO,ester
5543,"1,5,7,11-tetraoxaspiro[5.5]undecane",C1COC2(OC1)OCCCO2,507.3,7,"[1, 6, 8]",3,True,CHO,ester
5544,"1,3-bis(prop-2-enyl)urea",C=CCNC(=O)NCC=C,507.33,7,"[1, 6, 7, 8]",4,True,CHON,alkene
5545,2-ethyloxolane-2-carboxylic acid,CCC1(CCCO1)C(=O)O,507.65,7,"[1, 6, 8]",3,True,CHO,carboxylic_acid
5546,"4,4-dimethyloxan-2-one",CC1(CCOC(=O)C1)C,507.65,7,"[1, 6, 8]",3,True,CHO,ester
5547,4-(oxiran-2-ylmethoxy)butan-1-ol,C1C(O1)COCCCCO,508.05,7,"[1, 6, 8]",3,True,CHO,ester
5548,ethyl 2-hydroxy-3-methylbutanoate,CCOC(=O)C(C(C)C)O,509.28,7,"[1, 6, 8]",3,True,CHO,ester
5549,butan-2-yl 2-hydroxypropanoate,CCC(C)OC(=O)C(C)O,509.28,7,"[1, 6, 8]",3,True,CHO,ester
5550,methyl 2-hydroxy-4-methylpentanoate,CC(C)CC(C(=O)OC)O,509.28,7,"[1, 6, 8]",3,True,CHO,ester
5551,methyl 2-hydroxy-3-methylpentanoate,CCC(C)C(C(=O)OC)O,509.28,7,"[1, 6, 8]",3,True,CHO,ester
5552,(E)-4-methylhex-3-enoic acid,CC/C(=C/CC(=O)O)/C,509.31,7,"[1, 6, 8]",3,True,CHO,alkene
5553,hept-4-enoic acid,CCC=CCCC(=O)O,509.43,7,"[1, 6, 8]",3,True,CHO,alkene
5554,methyl 3-hydroxyhexanoate,CCCC(CC(=O)OC)O,509.72,7,"[1, 6, 8]",3,True,CHO,ester
5555,2-hydroxypropyl butanoate,CCCC(=O)OCC(C)O,509.72,7,"[1, 6, 8]",3,True,CHO,ester
5556,ethyl 3-hydroxypentanoate,CCC(CC(=O)OCC)O,509.72,7,"[1, 6, 8]",3,True,CHO,ester
5557,"2-ethylcyclopentane-1,3-dione",CCC1C(=O)CCC1=O,510.68,7,"[1, 6, 8]",3,True,CHO,ketone
5558,1-morpholin-4-ylpropan-2-ol,CC(CN1CCOCC1)O,510.84,7,"[1, 6, 7, 8]",4,True,CHON,ester
5559,"2,2-dimethylcyclopentane-1,3-dione",CC1(C(=O)CCC1=O)C,510.92,7,"[1, 6, 8]",3,True,CHO,ketone
5560,6-ethoxypyridin-2-amine,CCOC1=CC=CC(=N1)N,511.15,7,"[1, 6, 7, 8]",4,True,CHON,ester
5561,2-pyridin-2-yloxyethanamine,C1=CC=NC(=C1)OCCN,511.15,7,"[1, 6, 7, 8]",4,True,CHON,ester
5562,3-(butylamino)propanenitrile,CCCCNCCC#N,512.01,7,"[1, 6, 7]",3,True,CHN,amine
5563,"bicyclo[2.2.1]hept-5-ene-2,3-dione",C1C2C=CC1C(=O)C2=O,512.31,7,"[1, 6, 8]",3,True,CHO,alkene
5564,"bicyclo[4.1.0]hept-3-ene-2,5-dione",C1C2C1C(=O)C=CC2=O,512.31,7,"[1, 6, 8]",3,True,CHO,alkene
5565,2-(2-methylpropoxy)ethyl carbamate,CC(C)COCCOC(=O)N,512.49,7,"[1, 6, 7, 8]",4,True,CHON,ester
5566,ethyl-[(E)-pent-1-enyl]diazene,CCC/C=C/N=NCC,513.12,7,"[1, 6, 7]",3,True,CHN,alkene
5567,"1,3,6,9-tetraoxacycloundecane",C1COCCOCOCCO1,513.13,7,"[1, 6, 8]",3,True,CHO,ester
5568,"bicyclo[2.2.1]heptane-2,3-dione",C1CC2CC1C(=O)C2=O,513.15,7,"[1, 6, 8]",3,True,CHO,ketone
5569,"bicyclo[2.2.1]heptane-2,5-dione",C1C2CC(=O)C1CC2=O,513.15,7,"[1, 6, 8]",3,True,CHO,ketone
5570,"bicyclo[4.1.0]heptane-2,5-dione",C1CC(=O)C2CC2C1=O,513.15,7,"[1, 6, 8]",3,True,CHO,ketone
5571,2-methyl-5-propyl-4H-pyrazol-3-one,CCCC1=NN(C(=O)C1)C,513.54,7,"[1, 6, 7, 8]",4,True,CHON,amide
5572,"3,4,6,7,8,9-hexahydro-2H-pyrimido[1,2-a]pyrimidine",C1CNC2=NCCCN2C1,514.22,7,"[1, 6, 7]",3,True,CHN,amine
5573,hept-2-ynoic acid,CCCCC#CC(=O)O,514.27,7,"[1, 6, 8]",3,True,CHO,alkyne
5574,"2-methylcyclohexane-1,3-dione",CC1C(=O)CCCC1=O,514.95,7,"[1, 6, 8]",3,True,CHO,ketone
5575,"4-methylcyclohexane-1,2-dione",CC1CCC(=O)C(=O)C1,514.95,7,"[1, 6, 8]",3,True,CHO,ketone
5576,"5-methylcyclohexane-1,3-dione",CC1CC(=O)CC(=O)C1,514.95,7,"[1, 6, 8]",3,True,CHO,ketone
5577,"4-methylcyclohexane-1,3-diamine",CC1CCC(CC1N)N,515.03,7,"[1, 6, 7]",3,True,CHN,amine
5578,methoxy(methoxymethoxymethoxymethoxymethoxy)methane,COCOCOCOCOCOC,515.45,7,"[1, 6, 8]",3,True,CHO,ester
5579,propan-2-yl 2-cyanoprop-2-enoate,CC(C)OC(=O)C(=C)C#N,516.18,7,"[1, 6, 7, 8]",4,True,CHON,ester
5580,propyl 2-cyanoprop-2-enoate,CCCOC(=O)C(=C)C#N,516.62,7,"[1, 6, 7, 8]",4,True,CHON,ester
5581,tert-butyl 2-cyanoacetate,CC(C)(C)OC(=O)CC#N,516.83,7,"[1, 6, 7, 8]",4,True,CHON,ester
5582,"methyl 1-nitroso-3,6-dihydro-2H-pyridine-5-carboxylate",COC(=O)C1=CCCN(C1)N=O,517.91,7,"[1, 6, 7, 8]",4,True,CHON,ester
5583,3-amino-5-methylphenol,CC1=CC(=CC(=C1)O)N,518.15,7,"[1, 6, 7, 8]",4,True,CHON,alcohol
5584,butan-2-yl 2-cyanoacetate,CCC(C)OC(=O)CC#N,519.62,7,"[1, 6, 7, 8]",4,True,CHON,ester
5585,"2-N-methylbenzene-1,2-diamine",CNC1=CC=CC=C1N,519.65,7,"[1, 6, 7]",3,True,CHN,aromatic
5586,2-cyclopent-3-en-1-ylacetic acid,C1C=CCC1CC(=O)O,519.71,7,"[1, 6, 8]",3,True,CHO,alkene
5587,3-morpholin-4-ylpropanenitrile,C1COCCN1CCC#N,521.18,7,"[1, 6, 7, 8]",4,True,CHON,ester
5588,"5-amino-2,2-dimethylpentan-1-ol",CC(C)(CCCN)CO,521.24,7,"[1, 6, 7, 8]",4,True,CHON,alcohol
5589,"heptane-2,4,6-trione",CC(=O)CC(=O)CC(=O)C,521.37,7,"[1, 6, 8]",3,True,CHO,ketone
5590,ethyl 4-nitrosopiperazine-1-carboxylate,CCOC(=O)N1CCN(CC1)N=O,521.94,7,"[1, 6, 7, 8]",4,True,CHON,ester
5591,"1-propan-2-ylpyrrole-2,5-dione",CC(C)N1C(=O)C=CC1=O,522.24,7,"[1, 6, 7, 8]",4,True,CHON,amide
5592,"1-propylpyrrole-2,5-dione",CCCN1C(=O)C=CC1=O,522.68,7,"[1, 6, 7, 8]",4,True,CHON,amide
5593,"2-methylcyclohexa-2,5-diene-1,4-dione",CC1=CC(=O)C=CC1=O,522.92,7,"[1, 6, 8]",3,True,CHO,alkene
5594,"4-methylcyclohexa-3,5-diene-1,2-dione",CC1=CC(=O)C(=O)C=C1,522.92,7,"[1, 6, 8]",3,True,CHO,alkene
5595,2-(methylcarbamoyloxy)ethyl prop-2-enoate,CNC(=O)OCCOC(=O)C=C,523.05,7,"[1, 6, 7, 8]",4,True,CHON,ester
5596,4-amino-2-methylhexan-3-ol,CCC(C(C(C)C)O)N,523.15,7,"[1, 6, 7, 8]",4,True,CHON,alcohol
5597,N-(4-hydroxybutyl)-N-prop-2-enylnitrous amide,C=CCN(CCCCO)N=O,524.46,7,"[1, 6, 7, 8]",4,True,CHON,alkene
5598,N-but-3-enyl-N-(3-hydroxypropyl)nitrous amide,C=CCCN(CCCO)N=O,524.46,7,"[1, 6, 7, 8]",4,True,CHON,alkene
5599,"3-(2-hydroxypropyl)-5-methyl-1,3-oxazolidin-2-one",CC1CN(C(=O)O1)CC(C)O,524.63,7,"[1, 6, 7, 8]",4,True,CHON,ester
5600,"4-[[(E)-prop-1-enoxy]methyl]-1,3-dioxolan-2-one",C/C=C/OCC1COC(=O)O1,524.65,7,"[1, 6, 8]",3,True,CHO,ester
5601,ethyl 3-ethoxy-3-iminopropanoate,CCOC(=N)CC(=O)OCC,524.74,7,"[1, 6, 7, 8]",4,True,CHON,ester
5602,methyl 2-acetyl-3-oxobutanoate,CC(=O)C(C(=O)C)C(=O)OC,525.28,7,"[1, 6, 8]",3,True,CHO,ester
5603,"(5-ethyl-1,3-dioxan-5-yl)methanol",CCC1(COCOC1)CO,525.63,7,"[1, 6, 8]",3,True,CHO,ester
5604,2-ethyl-4-hydroxy-3-methyl-2H-furan-5-one,CCC1C(=C(C(=O)O1)O)C,526.02,7,"[1, 6, 8]",3,True,CHO,ester
5605,heptanamide,CCCCCCC(=O)N,527.15,7,"[1, 6, 7, 8]",4,True,CHON,amide
5606,"1-ethyl-3-methylpyrrole-2,5-dione",CCN1C(=O)C=C(C1=O)C,527.66,7,"[1, 6, 7, 8]",4,True,CHON,amide
5607,N-(4-hydroxybutyl)-N-propylnitrous amide,CCCN(CCCCO)N=O,527.78,7,"[1, 6, 7, 8]",4,True,CHON,alcohol
5608,N-butyl-N-(3-hydroxypropyl)nitrous amide,CCCCN(CCCO)N=O,527.78,7,"[1, 6, 7, 8]",4,True,CHON,alcohol
5609,"4,6-dimethylpyridin-3-amine",CC1=CC(=NC=C1N)C,529.15,7,"[1, 6, 7]",3,True,CHN,aromatic
5610,2-(2-hydroxyethoxy)ethyl prop-2-enoate,C=CC(=O)OCCOCCO,529.26,7,"[1, 6, 8]",3,True,CHO,ester
5611,dimethyl 3-oxopentanedioate,COC(=O)CC(=O)CC(=O)OC,530.07,7,"[1, 6, 8]",3,True,CHO,ester
5612,dimethyl 2-oxopentanedioate,COC(=O)CCC(=O)C(=O)OC,530.07,7,"[1, 6, 8]",3,True,CHO,ester
5613,"2-amino-2,4-dimethylpentanenitrile",CC(C)CC(C)(C#N)N,530.7,7,"[1, 6, 7]",3,True,CHN,amine
5614,"1-nitroso-1,3-bis(prop-2-enyl)urea",C=CCNC(=O)N(CC=C)N=O,533.0,7,"[1, 6, 7, 8]",4,True,CHON,alkene
5615,"1-butyl-3,3-dimethyl-1-nitrosourea",CCCCN(C(=O)N(C)C)N=O,534.15,7,"[1, 6, 7, 8]",4,True,CHON,amide
5616,7-aminoheptanenitrile,C(CCCN)CCC#N,534.37,7,"[1, 6, 7]",3,True,CHN,amine
5617,3-(oxolan-2-yl)propanoic acid,C1CC(OC1)CCC(=O)O,536.15,7,"[1, 6, 8]",3,True,CHO,carboxylic_acid
5618,tert-butyl N-(2-aminoethyl)carbamate,CC(C)(C)OC(=O)NCCN,537.45,7,"[1, 6, 7, 8]",4,True,CHON,ester
5619,"2,4-dimethylpentane-2,4-diol",CC(C)(CC(C)(C)O)O,537.66,7,"[1, 6, 8]",3,True,CHO,alcohol
5620,1-(5-hydroxy-4-methyloxolan-3-yl)ethanone,CC1C(COC1O)C(=O)C,538.7,7,"[1, 6, 8]",3,True,CHO,ester
5621,"2-hydroxy-5,5-dimethylcyclopent-2-en-1-one",CC1(CC=C(C1=O)O)C,539.42,7,"[1, 6, 8]",3,True,CHO,alkene
5622,"3,5-bis(methoxymethyl)-1,3,5-oxadiazinan-4-one",COCN1COCN(C1=O)COC,539.93,7,"[1, 6, 7, 8]",4,True,CHON,ester
5623,"2-methyl-2-propan-2-ylpropane-1,3-diol",CC(C)C(C)(CO)CO,540.45,7,"[1, 6, 8]",3,True,CHO,alcohol
5624,"2-methylhexane-2,5-diol",CC(CCC(C)(C)O)O,540.45,7,"[1, 6, 8]",3,True,CHO,alcohol
5625,"3,4-dimethylpentane-1,4-diol",CC(CCO)C(C)(C)O,540.45,7,"[1, 6, 8]",3,True,CHO,alcohol
5626,methyl 2-methoxy-2-(prop-2-enoylamino)acetate,COC(C(=O)OC)NC(=O)C=C,540.68,7,"[1, 6, 7, 8]",4,True,CHON,ester
5627,"5-methylhexane-1,5-diol",CC(C)(CCCCO)O,540.89,7,"[1, 6, 8]",3,True,CHO,alcohol
5628,"2,2-dimethylpentane-1,5-diol",CC(C)(CCCO)CO,540.89,7,"[1, 6, 8]",3,True,CHO,alcohol
5629,"3,3-dimethylpentane-1,5-diol",CC(C)(CCO)CCO,540.89,7,"[1, 6, 8]",3,True,CHO,alcohol
5630,"1-methyl-3,6-dihydro-2H-pyridine-5-carboxylic acid",CN1CCC=C(C1)C(=O)O,541.8,7,"[1, 6, 7, 8]",4,True,CHON,carboxylic_acid
5631,1-methoxypropan-2-yl 2-cyanoacetate,CC(COC)OC(=O)CC#N,542.04,7,"[1, 6, 7, 8]",4,True,CHON,ester
5632,[acetyl(ethoxycarbonyl)amino] acetate,CCOC(=O)N(C(=O)C)OC(=O)C,542.51,7,"[1, 6, 7, 8]",4,True,CHON,ester
5633,"heptane-2,6-diol",CC(CCCC(C)O)O,543.24,7,"[1, 6, 8]",3,True,CHO,alcohol
5634,"heptane-2,4-diol",CCCC(CC(C)O)O,543.24,7,"[1, 6, 8]",3,True,CHO,alcohol
5635,"heptane-2,3-diol",CCCCC(C(C)O)O,543.24,7,"[1, 6, 8]",3,True,CHO,alcohol
5636,"2-ethylpentane-1,3-diol",CCC(CO)C(CC)O,543.24,7,"[1, 6, 8]",3,True,CHO,alcohol
5637,"2-butan-2-ylpropane-1,3-diol",CCC(C)C(CO)CO,543.24,7,"[1, 6, 8]",3,True,CHO,alcohol
5638,N-(2-oxobutyl)-N-(2-oxopropyl)nitrous amide,CCC(=O)CN(CC(=O)C)N=O,543.34,7,"[1, 6, 7, 8]",4,True,CHON,ketone
5639,"heptane-1,3-diol",CCCCC(CCO)O,543.68,7,"[1, 6, 8]",3,True,CHO,alcohol
5640,"heptane-1,5-diol",CCC(CCCCO)O,543.68,7,"[1, 6, 8]",3,True,CHO,alcohol
5641,"2-propylbutane-1,4-diol",CCCC(CCO)CO,543.68,7,"[1, 6, 8]",3,True,CHO,alcohol
5642,3-oxo-3-pyrrolidin-1-ylpropanenitrile,C1CCN(C1)C(=O)CC#N,543.83,7,"[1, 6, 7, 8]",4,True,CHON,amide
5643,"2-hydroxy-3,4-dimethylcyclopent-2-en-1-one",CC1CC(=O)C(=C1C)O,544.16,7,"[1, 6, 8]",3,True,CHO,alkene
5644,"3,3,5,5-tetramethylpyrazol-4-one",CC1(C(=O)C(N=N1)(C)C)C,545.23,7,"[1, 6, 7, 8]",4,True,CHON,ketone
5645,"2-methoxycyclohexa-2,5-diene-1,4-dione",COC1=CC(=O)C=CC1=O,545.34,7,"[1, 6, 8]",3,True,CHO,ester
5646,diethyl 2-aminopropanedioate,CCOC(=O)C(C(=O)OCC)N,548.29,7,"[1, 6, 7, 8]",4,True,CHON,ester
5647,2-ethyl-3-hydroxycyclopent-2-en-1-one,CCC1=C(CCC1=O)O,548.83,7,"[1, 6, 8]",3,True,CHO,alkene
5648,3-ethyl-2-hydroxycyclopent-2-en-1-one,CCC1=C(C(=O)CC1)O,548.83,7,"[1, 6, 8]",3,True,CHO,alkene
5649,2-(hydroxymethylidene)cyclohexan-1-one,C1CCC(=O)C(=CO)C1,550.62,7,"[1, 6, 8]",3,True,CHO,alkene
5650,"3-tert-butyl-1,4-dihydropyrazol-5-one",CC(C)(C)C1=NNC(=O)C1,550.69,7,"[1, 6, 7, 8]",4,True,CHON,amide
5651,"bicyclo[2.2.1]hept-5-ene-2,3-diol",C1C2C=CC1C(C2O)O,551.69,7,"[1, 6, 8]",3,True,CHO,alkene
5652,2-[ethoxycarbonyl(nitroso)amino]ethyl acetate,CCOC(=O)N(CCOC(=O)C)N=O,552.04,7,"[1, 6, 7, 8]",4,True,CHON,ester
5653,2-[acetyloxymethyl(nitroso)amino]ethyl acetate,CC(=O)OCCN(COC(=O)C)N=O,552.04,7,"[1, 6, 7, 8]",4,True,CHON,ester
5654,methyl 3-[acetyloxymethyl(nitroso)amino]propanoate,CC(=O)OCN(CCC(=O)OC)N=O,552.04,7,"[1, 6, 7, 8]",4,True,CHON,ester
5655,"bicyclo[2.2.1]heptane-2,5-diol",C1C2CC(C1CC2O)O,552.53,7,"[1, 6, 8]",3,True,CHO,alcohol
5656,7-hydroxyheptanenitrile,C(CCCO)CCC#N,554.02,7,"[1, 6, 7, 8]",4,True,CHON,alcohol
5657,ethyl N-[(ethoxycarbonylamino)methyl]carbamate,CCOC(=O)NCNC(=O)OCC,554.15,7,"[1, 6, 7, 8]",4,True,CHON,ester
5658,1-aminocyclohexane-1-carbonitrile,C1CCC(CC1)(C#N)N,554.16,7,"[1, 6, 7]",3,True,CHN,amine
5659,"N,1-dimethyl-5-oxopyrrolidine-3-carboxamide",CNC(=O)C1CC(=O)N(C1)C,555.07,7,"[1, 6, 7, 8]",4,True,CHON,amide
5660,"3,3-diethylazetidine-2,4-dione",CCC1(C(=O)NC1=O)CC,555.2,7,"[1, 6, 7, 8]",4,True,CHON,amide
5661,1-[2-hydroxypropyl(methyl)amino]propan-2-ol,CC(CN(C)CC(C)O)O,555.68,7,"[1, 6, 7, 8]",4,True,CHON,alcohol
5662,"2,2-dimethyl-4-oxopentanoic acid",CC(=O)CC(C)(C)C(=O)O,555.91,7,"[1, 6, 8]",3,True,CHO,carboxylic_acid
5663,N-hydroxyheptanamide,CCCCCCC(=O)NO,555.98,7,"[1, 6, 7, 8]",4,True,CHON,amide
5664,2-[2-hydroxyethyl(propan-2-yl)amino]ethanol,CC(C)N(CCO)CCO,556.12,7,"[1, 6, 7, 8]",4,True,CHON,alcohol
5665,1-(hydroxymethyl)azepan-2-one,C1CCC(=O)N(CC1)CO,556.42,7,"[1, 6, 7, 8]",4,True,CHON,amide
5666,2-[2-hydroxyethyl(propyl)amino]ethanol,CCCN(CCO)CCO,556.56,7,"[1, 6, 7, 8]",4,True,CHON,alcohol
5667,tert-butyl N-(2-hydroxyethyl)carbamate,CC(C)(C)OC(=O)NCCO,557.1,7,"[1, 6, 7, 8]",4,True,CHON,ester
5668,4-methyl-5-oxohexanoic acid,CC(CCC(=O)O)C(=O)C,558.7,7,"[1, 6, 8]",3,True,CHO,carboxylic_acid
5669,"1,3-bis(2-methoxyethyl)urea",COCCNC(=O)NCCOC,558.81,7,"[1, 6, 7, 8]",4,True,CHON,ester
5670,"N'-(2-imidazolidin-1-ylethyl)ethane-1,2-diamine",C1CN(CN1)CCNCCN,559.13,7,"[1, 6, 7]",3,True,CHN,amine
5671,6-oxoheptanoic acid,CC(=O)CCCCC(=O)O,559.14,7,"[1, 6, 8]",3,True,CHO,carboxylic_acid
5672,3-oxoheptanoic acid,CCCCC(=O)CC(=O)O,559.14,7,"[1, 6, 8]",3,True,CHO,carboxylic_acid
5673,"(E)-N'-(3-aminopropyl)but-2-ene-1,4-diamine",C(CN)CNC/C=C/CN,559.15,7,"[1, 6, 7]",3,True,CHN,alkene
5674,"1-methylcyclohexane-1,2-diol",CC1(CCCCC1O)O,559.24,7,"[1, 6, 8]",3,True,CHO,alcohol
5675,3-[(2-methylpropan-2-yl)oxy]-3-oxopropanoic acid,CC(C)(C)OC(=O)CC(=O)O,560.26,7,"[1, 6, 8]",3,True,CHO,carboxylic_acid
5676,N-[(prop-2-enoylamino)methyl]prop-2-enamide,C=CC(=O)NCNC(=O)C=C,561.2,7,"[1, 6, 7, 8]",4,True,CHON,alkene
5677,1-hexyl-1-nitrosourea,CCCCCCN(C(=O)N)N=O,562.0,7,"[1, 6, 7, 8]",4,True,CHON,amide
5678,"3-[(2-methylpropan-2-yl)oxy]propane-1,2-diol",CC(C)(C)OCC(CO)O,562.87,7,"[1, 6, 8]",3,True,CHO,ester
5679,"1,1,3-triethyl-3-nitrosourea",CCN(CC)C(=O)N(CC)N=O,563.15,7,"[1, 6, 7, 8]",4,True,CHON,amide
5680,"cycloheptane-1,2-diol",C1CCC(C(CC1)O)O,563.27,7,"[1, 6, 8]",3,True,CHO,alcohol
5681,"N'-[2-(4,5-dihydroimidazol-1-yl)ethyl]ethane-1,2-diamine",C1CN(C=N1)CCNCCN,563.44,7,"[1, 6, 7]",3,True,CHN,amine
5682,6-methoxy-6-oxohexanoic acid,COC(=O)CCCCC(=O)O,563.49,7,"[1, 6, 8]",3,True,CHO,carboxylic_acid
5683,4-oxo-4-propoxybutanoic acid,CCCOC(=O)CCC(=O)O,563.49,7,"[1, 6, 8]",3,True,CHO,carboxylic_acid
5684,"4,4-dimethylpiperidine-2,6-dione",CC1(CC(=O)NC(=O)C1)C,563.74,7,"[1, 6, 7, 8]",4,True,CHON,amide
5685,1-(hydroxymethyl)cyclohexan-1-ol,C1CCC(CC1)(CO)O,563.91,7,"[1, 6, 8]",3,True,CHO,alcohol
5686,(Z)-4-oxo-4-prop-2-enoxybut-2-enoic acid,C=CCOC(=O)/C=C\C(=O)O,564.33,7,"[1, 6, 8]",3,True,CHO,carboxylic_acid
5687,"2,2-dimethyl-5-oxooxolane-3-carboxylic acid",CC1(C(CC(=O)O1)C(=O)O)C,565.8,7,"[1, 6, 8]",3,True,CHO,carboxylic_acid
5688,"3-azabicyclo[3.2.1]octane-2,4-dione",C1CC2CC1C(=O)NC2=O,565.97,7,"[1, 6, 7, 8]",4,True,CHON,amide
5689,2-ethyl-4-(hydroxymethyl)furan-3-one,CCC1C(=O)C(=CO1)CO,566.13,7,"[1, 6, 8]",3,True,CHO,ester
5690,(Z)-4-oxo-4-propan-2-yloxybut-2-enoic acid,CC(C)OC(=O)/C=C\C(=O)O,567.21,7,"[1, 6, 8]",3,True,CHO,carboxylic_acid
5691,N-(2-acetamidopropyl)acetamide,CC(CNC(=O)C)NC(=O)C,567.4,7,"[1, 6, 7, 8]",4,True,CHON,amide
5692,"N'-[2-[2-(methylamino)ethylamino]ethyl]ethane-1,2-diamine",CNCCNCCNCCN,567.43,7,"[1, 6, 7]",3,True,CHN,amine
5693,(Z)-4-oxo-4-propoxybut-2-enoic acid,CCCOC(=O)/C=C\C(=O)O,567.65,7,"[1, 6, 8]",3,True,CHO,carboxylic_acid
5694,"4-hydroxy-4,6-dihydrofuro[3,2-c]pyran-2-one",C1C=C2C(=CC(=O)O2)C(O1)O,567.81,7,"[1, 6, 8]",3,True,CHO,ester
5695,dimethyl 3-hydroxypentanedioate,COC(=O)CC(CC(=O)OC)O,567.94,7,"[1, 6, 8]",3,True,CHO,ester
5696,"(E)-3-(3,4-dihydro-2H-pyrrol-5-yl)prop-2-enamide",C1CC(=NC1)/C=C/C(=O)N,568.11,7,"[1, 6, 7, 8]",4,True,CHON,alkene
5697,2-[2-(3-aminopropoxy)ethoxy]ethanol,C(CN)COCCOCCO,569.31,7,"[1, 6, 7, 8]",4,True,CHON,ester
5698,"6-azaspiro[3.4]octane-5,7-dione",C1CC2(C1)CC(=O)NC2=O,570.88,7,"[1, 6, 7, 8]",4,True,CHON,amide
5699,5-ethyl-4-hydroxy-2-methylfuran-3-one,CCC1=C(C(=O)C(O1)C)O,571.11,7,"[1, 6, 8]",3,True,CHO,ester
5700,2-ethyl-4-hydroxy-5-methylfuran-3-one,CCC1C(=O)C(=C(O1)C)O,571.11,7,"[1, 6, 8]",3,True,CHO,ester
5701,ethyl 2-cyano-3-oxobutanoate,CCOC(=O)C(C#N)C(=O)C,573.49,7,"[1, 6, 7, 8]",4,True,CHON,ester
5702,di(imidazol-1-yl)methanone,C1=CN(C=N1)C(=O)N2C=CN=C2,573.91,7,"[1, 6, 7, 8]",4,True,CHON,aromatic
5703,"2-amino-2,4-dimethylpentanoic acid",CC(C)CC(C)(C(=O)O)N,574.13,7,"[1, 6, 7, 8]",4,True,CHON,carboxylic_acid
5704,"2-amino-4,4-dimethylpentanoic acid",CC(C)(C)CC(C(=O)O)N,574.13,7,"[1, 6, 7, 8]",4,True,CHON,carboxylic_acid
5705,3-morpholin-4-yl-3-oxopropanenitrile,C1COCCN1C(=O)CC#N,575.05,7,"[1, 6, 7, 8]",4,True,CHON,ester
5706,3-[2-cyanoethyl(methyl)amino]propanenitrile,CN(CCC#N)CCC#N,576.36,7,"[1, 6, 7]",3,True,CHN,amine
5707,2-amino-5-methylhexanoic acid,CC(C)CCC(C(=O)O)N,576.92,7,"[1, 6, 7, 8]",4,True,CHON,carboxylic_acid
5708,2-amino-4-methylhexanoic acid,CCC(C)CC(C(=O)O)N,576.92,7,"[1, 6, 7, 8]",4,True,CHON,carboxylic_acid
5709,3-amino-5-methylhexanoic acid,CC(C)CC(CC(=O)O)N,576.92,7,"[1, 6, 7, 8]",4,True,CHON,carboxylic_acid
5710,2-amino-3-ethylpentanoic acid,CCC(CC)C(C(=O)O)N,576.92,7,"[1, 6, 7, 8]",4,True,CHON,carboxylic_acid
5711,2-amino-3-methylhexanoic acid,CCCC(C)C(C(=O)O)N,576.92,7,"[1, 6, 7, 8]",4,True,CHON,carboxylic_acid
5712,2-aminoheptanoic acid,CCCCCC(C(=O)O)N,577.36,7,"[1, 6, 7, 8]",4,True,CHON,carboxylic_acid
5713,7-aminoheptanoic acid,C(CCCN)CCC(=O)O,577.8,7,"[1, 6, 7, 8]",4,True,CHON,carboxylic_acid
5714,"(2,5-dioxopyrrolidin-1-yl) prop-2-enoate",C=CC(=O)ON1C(=O)CCC1=O,578.42,7,"[1, 6, 7, 8]",4,True,CHON,alkene
5715,2-[2-(2-hydroxyethoxy)ethyl-methylamino]ethanol,CN(CCO)CCOCCO,578.98,7,"[1, 6, 7, 8]",4,True,CHON,ester