,Name,SMILES,Tb,C Atom,Atom,Count Unique Atom,Pass Screen,Atom2,Func. Group
7628,3-ethylheptan-4-ol,CCCC(C(CC)CC)O,496.82,9,"[1, 6, 8]",3,True,CHO,alcohol
7629,3-methyloctan-2-ol,CCCCCC(C)C(C)O,496.82,9,"[1, 6, 8]",3,True,CHO,alcohol
7630,6-methyloctan-3-ol,CCC(C)CCC(CC)O,496.82,9,"[1, 6, 8]",3,True,CHO,alcohol
7631,5-methyloctan-4-ol,CCCC(C)C(CCC)O,496.82,9,"[1, 6, 8]",3,True,CHO,alcohol
7632,4-methyloctan-3-ol,CCCCC(C)C(CC)O,496.82,9,"[1, 6, 8]",3,True,CHO,alcohol
7633,5-methyloctan-2-ol,CCCC(C)CCC(C)O,496.82,9,"[1, 6, 8]",3,True,CHO,alcohol
7634,6-methyloctan-4-ol,CCCC(CC(C)CC)O,496.82,9,"[1, 6, 8]",3,True,CHO,alcohol
7635,7-methyloctan-2-ol,CC(C)CCCCC(C)O,496.82,9,"[1, 6, 8]",3,True,CHO,alcohol
7636,7-methyloctan-3-ol,CCC(CCCC(C)C)O,496.82,9,"[1, 6, 8]",3,True,CHO,alcohol
7637,2-ethyl-5-methylhexan-1-ol,CCC(CCC(C)C)CO,496.82,9,"[1, 6, 8]",3,True,CHO,alcohol
7638,"bicyclo[4.2.1]nona-2,4,7-trien-9-one",C1=CC2C=CC(C2=O)C=C1,497.11,9,"[1, 6, 8]",3,True,CHO,alkene
7639,"2-phenyl-1,3-dioxolane",C1COC(O1)C2=CC=CC=C2,497.15,9,"[1, 6, 8]",3,True,CHO,ester
7640,5-ethyl-2-methylphenol,CCC1=CC(=C(C=C1)C)O,497.15,9,"[1, 6, 8]",3,True,CHO,aromatic
7641,"5-ethenyl-1,3-benzodioxole",C=CC1=CC2=C(C=C1)OCO2,497.2,9,"[1, 6, 8]",3,True,CHO,ester
7642,2-propylhexan-1-ol,CCCCC(CCC)CO,497.26,9,"[1, 6, 8]",3,True,CHO,alcohol
7643,2-ethylheptan-1-ol,CCCCCC(CC)CO,497.26,9,"[1, 6, 8]",3,True,CHO,alcohol
7644,2-methyloctan-1-ol,CCCCCCC(C)CO,497.26,9,"[1, 6, 8]",3,True,CHO,alcohol
7645,5-ethylheptan-1-ol,CCC(CC)CCCCO,497.26,9,"[1, 6, 8]",3,True,CHO,alcohol
7646,3-methyloctan-1-ol,CCCCCC(C)CCO,497.26,9,"[1, 6, 8]",3,True,CHO,alcohol
7647,5-methyloctan-1-ol,CCCC(C)CCCCO,497.26,9,"[1, 6, 8]",3,True,CHO,alcohol
7648,3-propylhexan-1-ol,CCCC(CCC)CCO,497.26,9,"[1, 6, 8]",3,True,CHO,alcohol
7649,"2,6,6-trimethylcyclohex-2-en-1-one",CC1=CCCC(C1=O)(C)C,497.27,9,"[1, 6, 8]",3,True,CHO,alkene
7650,3-ethyl-2-methylphenol,CCC1=C(C(=CC=C1)O)C,497.65,9,"[1, 6, 8]",3,True,CHO,aromatic
7651,2-phenylpropan-1-ol,CC(CO)C1=CC=CC=C1,497.65,9,"[1, 6, 8]",3,True,CHO,aromatic
7652,"N-(2,4,4-trimethylpentan-2-yl)formamide",CC(C)(C)CC(C)(C)NC=O,497.89,9,"[1, 6, 7, 8]",4,True,CHON,amide
7653,"(2E)-2,4-dimethylhepta-2,6-dien-1-ol",CC(CC=C)/C=C(\C)/CO,497.98,9,"[1, 6, 8]",3,True,CHO,alkene
7654,"3-methyl-6,7-dihydro-5H-cyclopenta[b]pyridine",CC1=CC2=C(CCC2)N=C1,498.15,9,"[1, 6, 7]",3,True,CHN,aromatic
7655,bicyclo[3.2.2]non-3-en-2-one,C1CC2CCC1C=CC2=O,498.79,9,"[1, 6, 8]",3,True,CHO,alkene
7656,bicyclo[4.2.1]non-7-en-9-one,C1CCC2C=CC(C1)C2=O,498.79,9,"[1, 6, 8]",3,True,CHO,alkene
7657,1-azabicyclo[2.2.2]octan-4-yl acetate,CC(=O)OC12CCN(CC1)CC2,498.84,9,"[1, 6, 7, 8]",4,True,CHON,ester
7658,1-(2-methoxyphenyl)-N-methylmethanamine,CNCC1=CC=CC=C1OC,499.15,9,"[1, 6, 7, 8]",4,True,CHON,ester
7659,1-(isocyanatomethyl)-2-methylbenzene,CC1=CC=CC=C1CN=C=O,499.15,9,"[1, 6, 7, 8]",4,True,CHON,aromatic
7660,methyl 2-(1-methyl-4H-pyridin-3-yl)acetate,CN1C=CCC(=C1)CC(=O)OC,499.43,9,"[1, 6, 7, 8]",4,True,CHON,ester
7661,bicyclo[3.3.1]nonan-2-one,C1CC2CCC(=O)C(C1)C2,499.63,9,"[1, 6, 8]",3,True,CHO,ketone
7662,bicyclo[4.2.1]nonan-9-one,C1CCC2CCC(C1)C2=O,499.63,9,"[1, 6, 8]",3,True,CHO,ketone
7663,"2,3,3a,4,5,6,7,7a-octahydroinden-1-one",C1CCC2C(C1)CCC2=O,499.63,9,"[1, 6, 8]",3,True,CHO,ketone
7664,bicyclo[3.3.1]nonan-9-one,C1CC2CCCC(C1)C2=O,499.63,9,"[1, 6, 8]",3,True,CHO,ketone
7665,"3,4-dimethylbenzaldehyde",CC1=C(C=C(C=C1)C=O)C,499.65,9,"[1, 6, 8]",3,True,CHO,aromatic
7666,"N,N-dimethyl-3-pyrrolidin-1-ylpropanamide",CN(C)C(=O)CCN1CCCC1,499.95,9,"[1, 6, 7, 8]",4,True,CHON,amide
7667,"3,6-dimethylhept-6-en-4-yn-3-ol",CCC(C)(C#CC(=C)C)O,500.03,9,"[1, 6, 8]",3,True,CHO,alkene
7668,"2,6-dimethylbenzaldehyde",CC1=C(C(=CC=C1)C)C=O,500.15,9,"[1, 6, 8]",3,True,CHO,aromatic
7669,"ethyl 1-methyl-3,6-dihydro-2H-pyridine-4-carboxylate",CCOC(=O)C1=CCN(CC1)C,500.27,9,"[1, 6, 7, 8]",4,True,CHON,ester
7670,methyl (2E)-2-(1-methylpyridin-2-ylidene)acetate,CN\1C=CC=C/C1=C\C(=O)OC,501.09,9,"[1, 6, 7, 8]",4,True,CHON,ester
7671,methyl 2-(1-methylpyridin-4-ylidene)acetate,CN1C=CC(=CC(=O)OC)C=C1,501.09,9,"[1, 6, 7, 8]",4,True,CHON,ester
7672,diethyl (Z)-2-methylbut-2-enedioate,CCOC(=O)/C=C(/C)\C(=O)OCC,501.15,9,"[1, 6, 8]",3,True,CHO,ester
7673,"2,6-dimethylhept-5-en-1-ol",CC(CCC=C(C)C)CO,501.3,9,"[1, 6, 8]",3,True,CHO,alkene
7674,(Z)-non-3-en-1-ol,CCCCC/C=C\CCO,501.86,9,"[1, 6, 8]",3,True,CHO,alkene
7675,non-2-en-1-ol,CCCCCCC=CCO,501.86,9,"[1, 6, 8]",3,True,CHO,alkene
7676,(E)-non-6-en-1-ol,CC/C=C/CCCCCO,501.86,9,"[1, 6, 8]",3,True,CHO,alkene
7677,2-cycloheptylethanamine,C1CCCC(CC1)CCN,501.87,9,"[1, 6, 7]",3,True,CHN,amine
7678,3-ethenylbicyclo[2.2.1]hept-5-en-2-ol,C=CC1C2CC(C1O)C=C2,501.95,9,"[1, 6, 8]",3,True,CHO,alkene
7679,3-methyl-2-propan-2-ylcyclopent-2-en-1-one,CC1=C(C(=O)CC1)C(C)C,501.97,9,"[1, 6, 8]",3,True,CHO,alkene
7680,"2-ethenyl-4,4,6-trimethyl-5,6-dihydro-1,3-oxazine",CC1CC(N=C(O1)C=C)(C)C,502.11,9,"[1, 6, 7, 8]",4,True,CHON,ester
7681,4-ethyl-3-methylphenol,CCC1=C(C=C(C=C1)O)C,502.15,9,"[1, 6, 8]",3,True,CHO,aromatic
7682,dipropyl propanedioate,CCCOC(=O)CC(=O)OCCC,502.35,9,"[1, 6, 8]",3,True,CHO,ester
7683,2-(azocan-1-yl)ethanamine,C1CCCN(CCC1)CCN,502.65,9,"[1, 6, 7]",3,True,CHN,amine
7684,"N'-[3-(dimethylamino)propyl]-N'-methylpropane-1,3-diamine",CN(C)CCCN(C)CCCN,502.93,9,"[1, 6, 7]",3,True,CHN,amine
7685,"N-tert-butyl-2,2-dimethylpropanamide",CC(C)(C)C(=O)NC(C)(C)C,503.1,9,"[1, 6, 7, 8]",4,True,CHON,amide
7686,5-ethoxy-2-hydroxybenzaldehyde,CCOC1=CC(=C(C=C1)O)C=O,503.15,9,"[1, 6, 8]",3,True,CHO,ester
7687,4-methyloct-2-yn-4-ol,CCCCC(C)(C#CC)O,503.47,9,"[1, 6, 8]",3,True,CHO,alkyne
7688,1-butylpyridin-2-one,CCCCN1C=CC=CC1=O,504.05,9,"[1, 6, 7, 8]",4,True,CHON,aromatic
7689,2-propan-2-ylidenecyclohexan-1-one,CC(=C1CCCCC1=O)C,504.08,9,"[1, 6, 8]",3,True,CHO,alkene
7690,"3,5,5-trimethylhexanoic acid",CC(CC(=O)O)CC(C)(C)C,504.15,9,"[1, 6, 8]",3,True,CHO,alcohol
7691,N-octylformamide,CCCCCCCCNC=O,504.35,9,"[1, 6, 7, 8]",4,True,CHON,amide
7692,ethyl 2-cyanohexanoate,CCCCC(C#N)C(=O)OCC,504.65,9,"[1, 6, 7, 8]",4,True,CHON,ester
7693,"N,N'-di(propan-2-yl)propane-1,3-diamine",CC(C)NCCCNC(C)C,504.98,9,"[1, 6, 7]",3,True,CHN,amine
7694,2-(2-methoxyethoxy)ethyl 2-methylprop-2-enoate,CC(=C)C(=O)OCCOCCOC,505.14,9,"[1, 6, 8]",3,True,CHO,ester
7695,"2,3,4,5-tetramethylpyridine",CC1=CN=C(C(=C1C)C)C,505.15,9,"[1, 6, 7]",3,True,CHN,aromatic
7696,ethyl (E)-3-(furan-2-yl)prop-2-enoate,CCOC(=O)/C=C/C1=CC=CO1,505.15,9,"[1, 6, 8]",3,True,CHO,ester
7697,"5,6-dimethylheptane-1,6-diamine",CC(CCCCN)C(C)(C)N,505.15,9,"[1, 6, 7]",3,True,CHN,amine
7698,2-[(dimethylamino)methyl]cyclohexan-1-one,CN(C)CC1CCCCC1=O,505.33,9,"[1, 6, 7, 8]",4,True,CHON,ketone
7699,"ethyl 2,2-diethoxypropanoate",CCOC(=O)C(C)(OCC)OCC,505.35,9,"[1, 6, 8]",3,True,CHO,ester
7700,"3,7-dimethyl-6,7-dihydro-5H-cyclopenta[b]pyrazine",CC1CCC2=NC(=CN=C12)C,505.79,9,"[1, 6, 7]",3,True,CHN,aromatic
7701,2-methyloct-5-yn-4-ol,CCC#CC(CC(C)C)O,505.82,9,"[1, 6, 8]",3,True,CHO,alkyne
7702,"1-azatricyclo[3.3.1.13,7]decan-4-one",C1C2CC3CN(C2)CC1C3=O,506.0,9,"[1, 6, 7, 8]",4,True,CHON,ketone
7703,"(3Z,6Z)-nona-3,6-dien-1-ol",CC/C=C\C/C=C\CCO,506.02,9,"[1, 6, 8]",3,True,CHO,alkene
7704,"nona-3,5-dien-1-ol",CCCC=CC=CCCO,506.02,9,"[1, 6, 8]",3,True,CHO,alkene
7705,"nona-3,6-dien-1-ol",CCC=CCC=CCCO,506.02,9,"[1, 6, 8]",3,True,CHO,alkene
7706,"(3Z,6E)-nona-3,6-dien-1-ol",CC/C=C/C/C=C\CCO,506.02,9,"[1, 6, 8]",3,True,CHO,alkene
7707,(3-methyl-2-bicyclo[2.2.1]heptanyl)methanol,CC1C2CCC(C2)C1CO,506.11,9,"[1, 6, 8]",3,True,CHO,alcohol
7708,non-5-yn-3-ol,CCCC#CCC(CC)O,506.26,9,"[1, 6, 8]",3,True,CHO,alkyne
7709,non-2-yn-1-ol,CCCCCCC#CCO,506.7,9,"[1, 6, 8]",3,True,CHO,alkyne
7710,2-ethenylbicyclo[2.2.1]hept-5-en-2-ol,C=CC1(CC2CC1C=C2)O,506.86,9,"[1, 6, 8]",3,True,CHO,alkene
7711,3-ethyl-4-methylphenol,CCC1=C(C=CC(=C1)O)C,507.65,9,"[1, 6, 8]",3,True,CHO,aromatic
7712,"(2,6-dimethylcyclohexyl)methanol",CC1CCCC(C1CO)C,507.91,9,"[1, 6, 8]",3,True,CHO,alcohol
7713,propyl pyridine-3-carboxylate,CCCOC(=O)C1=CN=CC=C1,508.15,9,"[1, 6, 7, 8]",4,True,CHON,ester
7714,"2,3-dihydro-1H-inden-4-amine",C1CC2=C(C1)C(=CC=C2)N,508.15,9,"[1, 6, 7]",3,True,CHN,aromatic
7715,methyl N-methyl-N-phenylcarbamate,CN(C1=CC=CC=C1)C(=O)OC,508.15,9,"[1, 6, 7, 8]",4,True,CHON,ester
7716,"1,4-diethyl-2,6,7-trioxabicyclo[2.2.2]octane",CCC12COC(OC1)(OC2)CC,508.87,9,"[1, 6, 8]",3,True,CHO,ester
7717,"ethyl (E)-2,4-dimethylpent-2-enoate",CCOC(=O)/C(=C/C(C)C)/C,508.87,9,"[1, 6, 8]",3,True,CHO,ester
7718,N-butylpentanamide,CCCCC(=O)NCCCC,509.56,9,"[1, 6, 7, 8]",4,True,CHON,amide
7719,N-hexylpropanamide,CCCCCCNC(=O)CC,509.56,9,"[1, 6, 7, 8]",4,True,CHON,amide
7720,5-(diethylamino)pentan-2-ol,CCN(CC)CCCC(C)O,509.7,9,"[1, 6, 7, 8]",4,True,CHON,alcohol
7721,"2,2-dimethylheptane-3,5-dione",CCC(=O)CC(=O)C(C)(C)C,510.03,9,"[1, 6, 8]",3,True,CHO,ketone
7722,5-(diethylamino)pentan-1-ol,CCN(CC)CCCCCO,510.14,9,"[1, 6, 7, 8]",4,True,CHON,alcohol
7723,(dibutylamino)methanol,CCCCN(CCCC)CO,510.14,9,"[1, 6, 7, 8]",4,True,CHON,alcohol
7724,"4-methoxy-N,N-dimethylaniline",CN(C)C1=CC=C(C=C1)OC,510.15,9,"[1, 6, 7, 8]",4,True,CHON,ester
7725,2-methoxy-2-phenylethanol,COC(CO)C1=CC=CC=C1,510.15,9,"[1, 6, 8]",3,True,CHO,ester
7726,4-ethylbenzonitrile,CCC1=CC=C(C=C1)C#N,510.15,9,"[1, 6, 7]",3,True,CHN,aromatic
7727,methyl 2-hydroxy-5-methoxybenzoate,COC1=CC(=C(C=C1)O)C(=O)OC,510.65,9,"[1, 6, 8]",3,True,CHO,ester
7728,(E)-non-6-enenitrile,CC/C=C/CCCCC#N,511.76,9,"[1, 6, 7]",3,True,CHN,alkene
7729,1-ethynylcycloheptan-1-ol,C#CC1(CCCCCC1)O,511.88,9,"[1, 6, 8]",3,True,CHO,alkyne
7730,2-propan-2-ylcyclohexan-1-ol,CC(C)C1CCCCC1O,512.14,9,"[1, 6, 8]",3,True,CHO,alcohol
7731,1-(4-methylcyclohexyl)ethanol,CC1CCC(CC1)C(C)O,512.14,9,"[1, 6, 8]",3,True,CHO,alcohol
7732,"2,3,4-trimethylaniline",CC1=C(C(=C(C=C1)N)C)C,512.15,9,"[1, 6, 7]",3,True,CHN,aromatic
7733,1-(furan-3-yl)-4-hydroxypentan-1-one,CC(CCC(=O)C1=COC=C1)O,512.15,9,"[1, 6, 8]",3,True,CHO,aromatic
7734,"2,4-dimethylheptane-3,5-dione",CCC(=O)C(C)C(=O)C(C)C,512.38,9,"[1, 6, 8]",3,True,CHO,ketone
7735,4-propylcyclohexan-1-ol,CCCC1CCC(CC1)O,512.58,9,"[1, 6, 8]",3,True,CHO,alcohol
7736,"ethyl 3,3-diethoxyprop-2-enoate",CCOC(=CC(=O)OCC)OCC,512.62,9,"[1, 6, 8]",3,True,CHO,ester
7737,1-ethyl-2-methylcyclohexan-1-ol,CCC1(CCCCC1C)O,512.82,9,"[1, 6, 8]",3,True,CHO,alcohol
7738,2-isocyanato-1-methoxy-4-methylbenzene,CC1=CC(=C(C=C1)OC)N=C=O,513.15,9,"[1, 6, 7, 8]",4,True,CHON,ester
7739,"nonane-2,4-dione",CCCCCC(=O)CC(=O)C,513.26,9,"[1, 6, 8]",3,True,CHO,ketone
7740,"nonane-2,8-dione",CC(=O)CCCCCC(=O)C,513.26,9,"[1, 6, 8]",3,True,CHO,ketone
7741,1-cyclohexylprop-2-en-1-ol,C=CC(C1CCCCC1)O,513.49,9,"[1, 6, 8]",3,True,CHO,alkene
7742,"4,4,6-trimethyl-7-oxabicyclo[4.1.0]heptan-2-one",CC1(CC(=O)C2C(C1)(O2)C)C,513.85,9,"[1, 6, 8]",3,True,CHO,ester
7743,1-[3-(dimethylamino)propyl]pyrrolidin-2-one,CN(C)CCCN1CCCC1=O,513.9,9,"[1, 6, 7, 8]",4,True,CHON,amide
7744,butyl N-butylcarbamate,CCCCNC(=O)OCCCC,513.91,9,"[1, 6, 7, 8]",4,True,CHON,ester
7745,2-cyclohexylpropan-2-ol,CC(C)(C1CCCCC1)O,514.02,9,"[1, 6, 8]",3,True,CHO,alcohol
7746,1-ethylazocan-5-one,CCN1CCCC(=O)CCC1,514.27,9,"[1, 6, 7, 8]",4,True,CHON,ketone
7747,"ethyl 4,4-dimethyl-3-oxopentanoate",CCOC(=O)CC(=O)C(C)(C)C,514.38,9,"[1, 6, 8]",3,True,CHO,ester
7748,"2,2,3-trimethylcyclopent-3-ene-1-carboxylic acid",CC1=CCC(C1(C)C)C(=O)O,514.65,9,"[1, 6, 8]",3,True,CHO,alkene
7749,2-prop-2-enoyloxypropyl prop-2-enoate,CC(COC(=O)C=C)OC(=O)C=C,514.88,9,"[1, 6, 8]",3,True,CHO,ester
7750,1-[2-(2-ethenoxyethoxy)ethoxy]-2-methoxyethane,COCCOCCOCCOC=C,515.15,9,"[1, 6, 8]",3,True,CHO,ester
7751,3-prop-2-enoyloxypropyl prop-2-enoate,C=CC(=O)OCCCOC(=O)C=C,515.32,9,"[1, 6, 8]",3,True,CHO,ester
7752,"3,5,6-trimethylidene-7-oxabicyclo[2.2.1]heptan-2-one",C=C1C2C(=C)C(=O)C(C1=C)O2,515.52,9,"[1, 6, 8]",3,True,CHO,ester
7753,3-ethoxybenzonitrile,CCOC1=CC=CC(=C1)C#N,515.65,9,"[1, 6, 7, 8]",4,True,CHON,ester
7754,"2,3,4,6,7,8,9,10-octahydropyrimido[1,2-a]azepine",C1CCC2=NCCCN2CC1,515.7,9,"[1, 6, 7]",3,True,CHN,amine
7755,"3,11-diazatetracyclo[6.3.0.02,6.05,9]undecane",C1C2C3CNC2C4C1C3CN4,515.97,9,"[1, 6, 7]",3,True,CHN,amine
7756,2-cyclohexylpropan-1-ol,CC(CO)C1CCCCC1,516.81,9,"[1, 6, 8]",3,True,CHO,alcohol
7757,"3,5,5-trimethylcyclohex-2-en-1-ol",CC1=CC(CC(C1)(C)C)O,516.96,9,"[1, 6, 8]",3,True,CHO,alkene
7758,methyl 2-ethyl-3-oxohexanoate,CCCC(=O)C(CC)C(=O)OC,517.17,9,"[1, 6, 8]",3,True,CHO,ester
7759,methyl 3-oxooctanoate,CCCCCC(=O)CC(=O)OC,517.61,9,"[1, 6, 8]",3,True,CHO,ester
7760,"bicyclo[4.2.1]nona-2,4-dien-9-ol",C1CC2C=CC=CC1C2O,517.64,9,"[1, 6, 8]",3,True,CHO,alkene
7761,"2,3-dihydro-1H-inden-4-ol",C1CC2=C(C1)C(=CC=C2)O,518.15,9,"[1, 6, 8]",3,True,CHO,aromatic
7762,(NE)-N-(1-phenylpropylidene)hydroxylamine,CC/C(=N\O)/C1=CC=CC=C1,518.15,9,"[1, 6, 7, 8]",4,True,CHON,aromatic
7763,2-(2-methoxyphenyl)acetaldehyde,COC1=CC=CC=C1CC=O,518.15,9,"[1, 6, 8]",3,True,CHO,ester
7764,"N,N'-dimethyl-N'-[3-(methylamino)propyl]propane-1,3-diamine",CNCCCN(C)CCCNC,518.3,9,"[1, 6, 7]",3,True,CHN,amine
7765,bicyclo[4.2.1]non-3-en-9-ol,C1CC2CC=CCC1C2O,518.48,9,"[1, 6, 8]",3,True,CHO,alkene
7766,1-methylazonan-2-one,CN1CCCCCCCC1=O,518.54,9,"[1, 6, 7, 8]",4,True,CHON,amide
7767,3-(dimethylamino)bicyclo[2.2.1]heptan-2-ol,CN(C)C1C2CCC(C2)C1O,518.55,9,"[1, 6, 7, 8]",4,True,CHON,alcohol
7768,N-[3-(dimethylamino)propyl]-2-methylprop-2-enamide,CC(=C)C(=O)NCCCN(C)C,518.56,9,"[1, 6, 7, 8]",4,True,CHON,amide
7769,6-O-ethenyl 1-O-methyl hexanedioate,COC(=O)CCCCC(=O)OC=C,518.64,9,"[1, 6, 8]",3,True,CHO,ester
7770,bis(2-ethoxyethyl) carbonate,CCOCCOC(=O)OCCOCC,518.65,9,"[1, 6, 8]",3,True,CHO,ester
7771,4-O-tert-butyl 1-O-methyl butanedioate,CC(C)(C)OC(=O)CCC(=O)OC,518.73,9,"[1, 6, 8]",3,True,CHO,ester
7772,"dimethyl 3,3-dimethylpentanedioate",CC(C)(CC(=O)OC)CC(=O)OC,518.73,9,"[1, 6, 8]",3,True,CHO,ester
7773,"dimethyl 2,2-diethylpropanedioate",CCC(CC)(C(=O)OC)C(=O)OC,518.73,9,"[1, 6, 8]",3,True,CHO,ester
7774,3-O-tert-butyl 1-O-ethyl propanedioate,CCOC(=O)CC(=O)OC(C)(C)C,518.73,9,"[1, 6, 8]",3,True,CHO,ester
7775,"2-(2,4-dimethylpentan-3-yloxy)ethanol",CC(C)C(C(C)C)OCCO,518.8,9,"[1, 6, 8]",3,True,CHO,ester
7776,2-hexan-3-yloxypropan-1-ol,CCCC(CC)OC(C)CO,519.24,9,"[1, 6, 8]",3,True,CHO,ester
7777,2-(diethylamino)pentanenitrile,CCCC(C#N)N(CC)CC,519.6,9,"[1, 6, 7]",3,True,CHN,amine
7778,"1-ethyl-2,3,4,6,7,8-hexahydropyrimido[1,2-a]pyrimidine",CCN1CCCN2C1=NCCC2,519.6,9,"[1, 6, 7]",3,True,CHN,amine
7779,2-heptan-3-yloxyethanol,CCCCC(CC)OCCO,519.68,9,"[1, 6, 8]",3,True,CHO,ester
7780,"3-methoxy-5,5-dimethylcyclohex-2-en-1-one",CC1(CC(=CC(=O)C1)OC)C,519.69,9,"[1, 6, 8]",3,True,CHO,ester
7781,3-(dipropylamino)propanenitrile,CCCN(CCC)CCC#N,520.04,9,"[1, 6, 7]",3,True,CHN,amine
7782,2-heptoxyethanol,CCCCCCCOCCO,520.12,9,"[1, 6, 8]",3,True,CHO,ester
7783,"2,3-dihydro-1H-inden-2-amine",C1C(CC2=CC=CC=C21)N,520.15,9,"[1, 6, 7]",3,True,CHN,aromatic
7784,"dimethyl 2,4-dimethylpentanedioate",CC(CC(C)C(=O)OC)C(=O)OC,521.08,9,"[1, 6, 8]",3,True,CHO,ester
7785,4-acetyloxypentan-2-yl acetate,CC(CC(C)OC(=O)C)OC(=O)C,521.08,9,"[1, 6, 8]",3,True,CHO,ester
7786,dipropan-2-yl propanedioate,CC(C)OC(=O)CC(=O)OC(C)C,521.08,9,"[1, 6, 8]",3,True,CHO,ester
7787,dimethyl 2-(2-methylpropyl)propanedioate,CC(C)CC(C(=O)OC)C(=O)OC,521.08,9,"[1, 6, 8]",3,True,CHO,ester
7788,2-(3-methylphenyl)acetonitrile,CC1=CC(=CC=C1)CC#N,521.15,9,"[1, 6, 7]",3,True,CHN,aromatic
7789,2-cycloheptylethanol,C1CCCC(CC1)CCO,521.52,9,"[1, 6, 8]",3,True,CHO,alcohol
7790,dimethyl 2-methylhexanedioate,CC(CCCC(=O)OC)C(=O)OC,521.52,9,"[1, 6, 8]",3,True,CHO,ester
7791,methyl 5-acetyloxyhexanoate,CC(CCCC(=O)OC)OC(=O)C,521.52,9,"[1, 6, 8]",3,True,CHO,ester
7792,dimethyl 3-methylhexanedioate,CC(CCC(=O)OC)CC(=O)OC,521.52,9,"[1, 6, 8]",3,True,CHO,ester
7793,4-cyclopentylbut-3-yn-2-ol,CC(C#CC1CCCC1)O,521.54,9,"[1, 6, 8]",3,True,CHO,alkyne
7794,methyl (E)-3-oxooct-6-enoate,C/C=C/CCC(=O)CC(=O)OC,521.77,9,"[1, 6, 8]",3,True,CHO,ester
7795,1-but-1-ynylcyclopentan-1-ol,CCC#CC1(CCCC1)O,522.22,9,"[1, 6, 8]",3,True,CHO,alkyne
7796,"1,3-bis(prop-2-ynoxy)propan-2-ol",C#CCOCC(COCC#C)O,522.34,9,"[1, 6, 8]",3,True,CHO,ester
7797,ethyl 3-morpholin-4-ylpropanoate,CCOC(=O)CCN1CCOCC1,523.08,9,"[1, 6, 7, 8]",4,True,CHON,ester
7798,"N'-benzylethane-1,2-diamine",C1=CC=C(C=C1)CNCCN,523.15,9,"[1, 6, 7]",3,True,CHN,aromatic
7799,2-(2-ethoxyethoxy)ethyl prop-2-enoate,CCOCCOCCOC(=O)C=C,523.15,9,"[1, 6, 8]",3,True,CHO,ester
7800,bicyclo[2.2.2]oct-5-ene-2-carbonitrile,C1CC2C=CC1CC2C#N,524.11,9,"[1, 6, 7]",3,True,CHN,alkene
7801,"nona-2,4,6,8-tetraynenitrile",C#CC#CC#CC#CC#N,524.72,9,"[1, 6, 7]",3,True,CHN,alkyne
7802,"2,2-diethylpent-4-enamide",CCC(CC)(CC=C)C(=O)N,525.37,9,"[1, 6, 7, 8]",4,True,CHON,alkene
7803,3-(2-methylpiperidin-1-yl)propan-1-ol,CC1CCCCN1CCCO,525.42,9,"[1, 6, 7, 8]",4,True,CHON,alcohol
7804,N-cyclohexylprop-2-enamide,C=CC(=O)NC1CCCCC1,525.79,9,"[1, 6, 7, 8]",4,True,CHON,alkene
7805,cyclooctylmethanol,C1CCCC(CCC1)CO,525.79,9,"[1, 6, 8]",3,True,CHO,alcohol
7806,dimethyl 2-propan-2-ylidenebutanedioate,CC(=C(CC(=O)OC)C(=O)OC)C,525.88,9,"[1, 6, 8]",3,True,CHO,ester
7807,diethyl 2-ethylidenepropanedioate,CCOC(=O)C(=CC)C(=O)OCC,526.0,9,"[1, 6, 8]",3,True,CHO,ester
7808,1-methylcyclooctan-1-ol,CC1(CCCCCCC1)O,526.03,9,"[1, 6, 8]",3,True,CHO,alcohol
7809,ethyl 6-isocyanatohexanoate,CCOC(=O)CCCCCN=C=O,526.15,9,"[1, 6, 7, 8]",4,True,CHON,ester
7810,(2-cyanophenyl) acetate,CC(=O)OC1=CC=CC=C1C#N,526.15,9,"[1, 6, 7, 8]",4,True,CHON,ester
7811,"2,4-dimethylcyclohex-3-ene-1-carbonitrile",CC1C=C(CCC1C#N)C,526.62,9,"[1, 6, 7]",3,True,CHN,alkene
7812,"1-(1,1-diethoxyethyl)imidazole",CCOC(C)(N1C=CN=C1)OCC,527.27,9,"[1, 6, 7, 8]",4,True,CHON,ester
7813,methyl 2-[2-(2-ethenoxyethoxy)ethoxy]acetate,COC(=O)COCCOCCOC=C,527.68,9,"[1, 6, 8]",3,True,CHO,ester
7814,5-amino-2-phenyl-4H-pyrazol-3-one,C1C(=NN(C1=O)C2=CC=CC=C2)N,528.15,9,"[1, 6, 7, 8]",4,True,CHON,aromatic
7815,"ethyl 2-(2,4-dimethyl-1,3-dioxolan-2-yl)acetate",CCOC(=O)CC1(OCC(O1)C)C,528.49,9,"[1, 6, 8]",3,True,CHO,ester
7816,"2,3,3-trimethylcyclopentene-1-carboxylic acid",CC1=C(CCC1(C)C)C(=O)O,528.65,9,"[1, 6, 8]",3,True,CHO,alkene
7817,N-cyclohexylpropanamide,CCC(=O)NC1CCCCC1,529.11,9,"[1, 6, 7, 8]",4,True,CHON,amide
7818,ethyl 2-isocyanato-4-methylpentanoate,CCOC(=O)C(CC(C)C)N=C=O,529.53,9,"[1, 6, 7, 8]",4,True,CHON,ester
7819,3-(2-ethylbutoxy)propanenitrile,CCC(CC)COCCC#N,529.58,9,"[1, 6, 7, 8]",4,True,CHON,ester
7820,"nonane-1,9-diamine",C(CCCCN)CCCCN,531.65,9,"[1, 6, 7]",3,True,CHN,amine
7821,nonanamide,CCCCCCCCC(=O)N,531.92,9,"[1, 6, 7, 8]",4,True,CHON,amide
7822,2-[2-(diethylamino)ethoxy]propan-1-ol,CCN(CC)CCOC(C)CO,532.12,9,"[1, 6, 7, 8]",4,True,CHON,ester
7823,1-butoxy-3-(dimethylamino)propan-2-ol,CCCCOCC(CN(C)C)O,532.12,9,"[1, 6, 7, 8]",4,True,CHON,ester
7824,"dimethyl cyclopentane-1,2-dicarboxylate",COC(=O)C1CCCC1C(=O)OC,532.57,9,"[1, 6, 8]",3,True,CHO,ester
7825,"1,5-dimethylindazole",CC1=CC2=C(C=C1)N(N=C2)C,533.15,9,"[1, 6, 7]",3,True,CHN,aromatic
7826,"ethyl 3-(2-methyl-1,3-dioxolan-2-yl)propanoate",CCOC(=O)CCC1(OCCO1)C,533.16,9,"[1, 6, 8]",3,True,CHO,ester
7827,2-ethoxybenzonitrile,CCOC1=CC=CC=C1C#N,533.65,9,"[1, 6, 7, 8]",4,True,CHON,ester
7828,3-[(Z)-hex-3-enoxy]propanenitrile,CC/C=C\CCOCCC#N,534.18,9,"[1, 6, 7, 8]",4,True,CHON,ester
7829,N-(3-methylbutyl)-N-(3-oxobutan-2-yl)nitrous amide,CC(C)CCN(C(C)C(=O)C)N=O,534.35,9,"[1, 6, 7, 8]",4,True,CHON,ketone
7830,[4-(methoxymethyl)cyclohexyl]methanol,COCC1CCC(CC1)CO,535.0,9,"[1, 6, 8]",3,True,CHO,ester
7831,N-methyl-N-nitrosooctanamide,CCCCCCCC(=O)N(C)N=O,535.23,9,"[1, 6, 7, 8]",4,True,CHON,amide
7832,"1,3-bis(prop-2-enoxy)propan-2-ol",C=CCOCC(COCC=C)O,535.46,9,"[1, 6, 8]",3,True,CHO,ester
7833,(E)-non-2-enamide,CCCCCC/C=C/C(=O)N,536.08,9,"[1, 6, 7, 8]",4,True,CHON,alkene
7834,1-cyclohexylazetidin-3-ol,C1CCC(CC1)N2CC(C2)O,536.43,9,"[1, 6, 7, 8]",4,True,CHON,alcohol
7835,2-methyl-2-piperidin-1-ylpropanenitrile,CC(C)(C#N)N1CCCCC1,536.76,9,"[1, 6, 7]",3,True,CHN,amine
7836,"3,3-dimethyl-1,5-dioxonane-6,9-dione",CC1(COC(=O)CCC(=O)OC1)C,537.48,9,"[1, 6, 8]",3,True,CHO,ester