,Name,SMILES,Tb,C Atom,Atom,Count Unique Atom,Pass Screen,Atom2,Func. Group
9616,"1,2-dimethyl-2,3-dihydro-1H-indene",CC1CC2=CC=CC=C2C1C,479.15,11,"[1, 6]",2,True,CH,aromatic
9617,"3-[benzyl(methyl)amino]propane-1,2-diol",CN(CC1=CC=CC=C1)CC(CO)O,479.15,11,"[1, 6, 7, 8]",4,True,CHON,aromatic
9618,"hexyl 2,2-dimethylpropanoate",CCCCCCOC(=O)C(C)(C)C,479.45,11,"[1, 6, 8]",3,True,CHO,ester
9619,"6,7-dimethoxy-3,4-dihydroisoquinoline",COC1=C(C=C2C=NCCC2=C1)OC,479.65,11,"[1, 6, 7, 8]",4,True,CHON,ester
9620,nonan-5-yl acetate,CCCCC(CCCC)OC(=O)C,479.65,11,"[1, 6, 8]",3,True,CHO,ester
9621,"1,2-diethyl-3-methylbenzene",CCC1=CC=CC(=C1CC)C,479.75,11,"[1, 6]",2,True,CH,aromatic
9622,"1,3-dimethyl-2-propylbenzene",CCCC1=C(C=CC=C1C)C,480.75,11,"[1, 6]",2,True,CH,aromatic
9623,"3,11-dimethyl-3,11-diazatetracyclo[6.3.0.02,6.05,9]undecane",CN1CC2C3C1C4C(C3)C2CN4C,480.97,11,"[1, 6, 7]",3,True,CHN,amine
9624,"8a-methyl-2,3,4,4a,7,8-hexahydro-1H-naphthalene",CC12CCCCC1C=CCC2,481.24,11,"[1, 6]",2,True,CH,alkene
9625,"1,2-diethylspiro[2.4]hepta-1,4,6-triene",CCC1=C(C12C=CC=C2)CC,481.38,11,"[1, 6]",2,True,CH,alkene
9626,"(2Z)-1-methoxy-3,7-dimethylocta-2,6-diene",CC(=CCC/C(=C\COC)/C)C,481.78,11,"[1, 6, 8]",3,True,CHO,ester
9627,(1-methylcyclobutyl)benzene,CC1(CCC1)C2=CC=CC=C2,481.8,11,"[1, 6]",2,True,CH,aromatic
9628,"1,3-diethyl-2-methylbenzene",CCC1=C(C(=CC=C1)CC)C,481.95,11,"[1, 6]",2,True,CH,aromatic
9629,"2-ethenyl-1,3,5-trimethylbenzene",CC1=CC(=C(C(=C1)C)C=C)C,482.15,11,"[1, 6]",2,True,CH,alkene
9630,N-tert-butyl-1-phenylmethanimine,CC(C)(C)N=CC1=CC=CC=C1,482.15,11,"[1, 6, 7]",3,True,CHN,aromatic
9631,"3-ethyl-2-methyl-2-(3-methylbutyl)-1,3-oxazolidine",CCN1CCOC1(C)CCC(C)C,482.15,11,"[1, 6, 7, 8]",4,True,CHON,ester
9632,"tricyclo[5.3.1.01,7]undeca-2,4,9-triene",C1C=CC=CC23C1(C2)CC=C3,482.67,11,"[1, 6]",2,True,CH,alkene
9633,"bicyclo[4.4.1]undeca-2,4,7,9-tetraene",C1C2C=CC=CC1C=CC=C2,482.75,11,"[1, 6]",2,True,CH,alkene
9634,"diethyl cyclopentane-1,1-dicarboxylate",CCOC(=O)C1(CCCC1)C(=O)OCC,483.15,11,"[1, 6, 8]",3,True,CHO,ester
9635,4-tert-butyl-1-azabicyclo[2.2.2]octane,CC(C)(C)C12CCN(CC1)CC2,483.15,11,"[1, 6, 7]",3,True,CHN,amine
9636,"tricyclo[4.3.2.01,6]undeca-2,4-diene",C1CC23CCC2(C1)C=CC=C3,483.51,11,"[1, 6]",2,True,CH,alkene
9637,"tricyclo[4.4.1.01,6]undeca-3,8-diene",C1C=CCC23C1(C2)CC=CC3,483.51,11,"[1, 6]",2,True,CH,alkene
9638,"dispiro[2.0.24.53]undeca-1,5-diene",C1CCC2(C=C2)C3(CC1)C=C3,483.51,11,"[1, 6]",2,True,CH,alkene
9639,7-[(2-methylpropan-2-yl)oxy]bicyclo[2.2.1]heptane,CC(C)(C)OC1C2CCC1CC2,483.55,11,"[1, 6, 8]",3,True,CHO,ester
9640,"1,2-dimethyl-3-propylbenzene",CCCC1=CC=CC(=C1C)C,483.85,11,"[1, 6]",2,True,CH,aromatic
9641,2-methoxy-4-methyl-1-propan-2-ylbenzene,CC1=CC(=C(C=C1)C(C)C)OC,484.15,11,"[1, 6, 8]",3,True,CHO,ester
9642,3-methyl-1-(3-methylbutoxymethoxy)butane,CC(C)CCOCOCCC(C)C,484.15,11,"[1, 6, 8]",3,True,CHO,ester
9643,"tricyclo[4.3.2.01,6]undec-3-ene",C1CC23CCC2(C1)CC=CC3,484.35,11,"[1, 6]",2,True,CH,alkene
9644,3-tert-butyl-6-methoxycyclohexene,CC(C)(C)C1CCC(C=C1)OC,484.51,11,"[1, 6, 8]",3,True,CHO,ester
9645,N-benzyl-N-ethylethanamine,CCN(CC)CC1=CC=CC=C1,484.65,11,"[1, 6, 7]",3,True,CHN,aromatic
9646,"5-ethyl-1,2,3,4-tetramethylcyclopenta-1,3-diene",CCC1C(=C(C(=C1C)C)C)C,484.8,11,"[1, 6]",2,True,CH,alkene
9647,"1,2,3,4,5,5-hexamethylcyclopenta-1,3-diene",CC1=C(C(C(=C1C)C)(C)C)C,485.04,11,"[1, 6]",2,True,CH,alkene
9648,2-methylpropoxymethylbenzene,CC(C)COCC1=CC=CC=C1,485.15,11,"[1, 6, 8]",3,True,CHO,ester
9649,"1-ethyl-2,3-dihydro-1H-indene",CCC1CCC2=CC=CC=C12,485.15,11,"[1, 6]",2,True,CH,aromatic
9650,"1-(3-tricyclo[3.3.1.03,7]nonanyl)ethanone",CC(=O)C12CC3CC(C1)CC2C3,485.15,11,"[1, 6, 8]",3,True,CHO,ketone
9651,dispiro[2.0.24.53]undecane,C1CCC2(CC2)C3(CC1)CC3,485.19,11,"[1, 6]",2,True,CH,alkane
9652,cyclopent-2-en-1-ylcyclohexane,C1CCC(CC1)C2CCC=C2,485.27,11,"[1, 6]",2,True,CH,alkene
9653,9-propan-2-yl-9-azabicyclo[3.3.1]nonane,CC(C)N1C2CCCC1CCC2,485.3,11,"[1, 6, 7]",3,True,CHN,amine
9654,1-tert-butyl-4-methoxycyclohexane,CC(C)(C)C1CCC(CC1)OC,485.35,11,"[1, 6, 8]",3,True,CHO,ester
9655,1-methoxy-1-methyl-4-prop-1-en-2-ylcyclohexane,CC(=C)C1CCC(CC1)(C)OC,485.38,11,"[1, 6, 8]",3,True,CHO,ester
9656,9-propyl-9-azabicyclo[3.3.1]nonane,CCCN1C2CCCC1CCC2,485.74,11,"[1, 6, 7]",3,True,CHN,amine
9657,bicyclo[3.3.3]undecane,C1CC2CCCC(C1)CCC2,486.11,11,"[1, 6]",2,True,CH,alkane
9658,tert-butyl benzoate,CC(C)(C)OC(=O)C1=CC=CC=C1,486.15,11,"[1, 6, 8]",3,True,CHO,ester
9659,"1,4,7,7-tetramethylbicyclo[2.2.1]heptan-2-one",CC1(C2(CCC1(C(=O)C2)C)C)C,486.15,11,"[1, 6, 8]",3,True,CHO,ketone
9660,(Z)-4-[2-[(Z)-3-carboxyprop-2-enoyl]oxypropoxy]-4-oxobut-2-enoic acid,CC(COC(=O)/C=C\C(=O)O)OC(=O)/C=C\C(=O)O,486.37,11,"[1, 6, 8]",3,True,CHO,carboxylic_acid
9661,1-methoxydecane,CCCCCCCCCCOC,486.5,11,"[1, 6, 8]",3,True,CHO,ester
9662,1-methoxy-4-methyl-2-propan-2-ylbenzene,CC1=CC(=C(C=C1)OC)C(C)C,486.65,11,"[1, 6, 8]",3,True,CHO,ester
9663,methylcyclodecane,CC1CCCCCCCCC1,487.91,11,"[1, 6]",2,True,CH,alkane
9664,hexyl 3-methylbutanoate,CCCCCCOC(=O)CC(C)C,488.15,11,"[1, 6, 8]",3,True,CHO,ester
9665,"N,N-dimethylnonan-1-amine",CCCCCCCCCN(C)C,488.15,11,"[1, 6, 7]",3,True,CHN,amine
9666,"1-cyclopropyl-2,4-dimethylbenzene",CC1=CC(=C(C=C1)C2CC2)C,488.65,11,"[1, 6]",2,True,CH,aromatic
9667,"5-ethyl-1,2,3-trimethylbenzene",CCC1=CC(=C(C(=C1)C)C)C,488.95,11,"[1, 6]",2,True,CH,aromatic
9668,2-hydroxynaphthalene-1-carboxylic acid,C1=CC=C2C(=C1)C=CC(=C2C(=O)O)O,489.15,11,"[1, 6, 8]",3,True,CHO,carboxylic_acid
9669,2-methylpropyl N-phenylcarbamate,CC(C)COC(=O)NC1=CC=CC=C1,489.15,11,"[1, 6, 7, 8]",4,True,CHON,ester
9670,2-phenylpentan-2-ol,CCCC(C)(C1=CC=CC=C1)O,489.15,11,"[1, 6, 8]",3,True,CHO,aromatic
9671,"2-ethyl-1,3,4-trimethylbenzene",CCC1=C(C=CC(=C1C)C)C,489.75,11,"[1, 6]",2,True,CH,aromatic
9672,2-ethoxypropan-2-ylcyclohexane,CCOC(C)(C)C1CCCCC1,490.02,11,"[1, 6, 8]",3,True,CHO,ester
9673,[(E)-pent-1-enyl]benzene,CCC/C=C/C1=CC=CC=C1,490.15,11,"[1, 6]",2,True,CH,alkene
9674,2-methoxy-1-methyl-4-propan-2-ylbenzene,CC1=C(C=C(C=C1)C(C)C)OC,490.15,11,"[1, 6, 8]",3,True,CHO,ester
9675,propan-2-ylidenecyclooctane,CC(=C1CCCCCCC1)C,490.56,11,"[1, 6]",2,True,CH,alkene
9676,methylidenecyclodecane,C=C1CCCCCCCCC1,491.74,11,"[1, 6]",2,True,CH,alkene
9677,"tricyclo[5.2.2.02,6]undeca-2,5,8-triene",C1CC2C=CC1C3=CCC=C23,492.15,11,"[1, 6]",2,True,CH,alkene
9678,1-hexylpiperidine,CCCCCCN1CCCCC1,492.35,11,"[1, 6, 7]",3,True,CHN,amine
9679,1-(2-butoxypropan-2-yloxy)butane,CCCCOC(C)(C)OCCCC,492.89,11,"[1, 6, 8]",3,True,CHO,ester
9680,"2,2-dimethoxynonane",CCCCCCCC(C)(OC)OC,492.89,11,"[1, 6, 8]",3,True,CHO,ester
9681,"2-methyl-1,2,3,4-tetrahydronaphthalene",CC1CCC2=CC=CC=C2C1,493.15,11,"[1, 6]",2,True,CH,aromatic
9682,4-methoxybutylcyclohexane,COCCCCC1CCCCC1,493.25,11,"[1, 6, 8]",3,True,CHO,ester
9683,"1-ethyl-2,3,4-trimethylbenzene",CCC1=C(C(=C(C=C1)C)C)C,493.55,11,"[1, 6]",2,True,CH,aromatic
9684,2-heptyloxolane,CCCCCCCC1CCCO1,493.65,11,"[1, 6, 8]",3,True,CHO,ester
9685,diethoxymethylbenzene,CCOC(C1=CC=CC=C1)OCC,494.0,11,"[1, 6, 8]",3,True,CHO,ester
9686,3-ethoxypropylbenzene,CCOCCCC1=CC=CC=C1,494.15,11,"[1, 6, 8]",3,True,CHO,ester
9687,1-(pentoxymethoxy)pentane,CCCCCOCOCCCCC,494.75,11,"[1, 6, 8]",3,True,CHO,ester
9688,1-butoxy-2-methylbenzene,CCCCOC1=CC=CC=C1C,495.15,11,"[1, 6, 8]",3,True,CHO,ester
9689,3-methyl-2-phenylbutanal,CC(C)C(C=O)C1=CC=CC=C1,495.65,11,"[1, 6, 8]",3,True,CHO,aromatic
9690,1-(1-butoxypropoxy)butane,CCCCOC(CC)OCCCC,495.68,11,"[1, 6, 8]",3,True,CHO,ester
9691,cycloundecene,C1CCCC/C=C/CCCC1,496.01,11,"[1, 6]",2,True,CH,alkene
9692,cycloundecene,C1CCCC/C=C\CCCC1,496.01,11,"[1, 6]",2,True,CH,alkene
9693,"4,7-dimethyl-2,3-dihydro-1H-indene",CC1=C2CCCC2=C(C=C1)C,496.15,11,"[1, 6]",2,True,CH,aromatic
9694,undec-10-enal,C=CCCCCCCCCC=O,496.62,11,"[1, 6, 8]",3,True,CHO,alkene
9695,3-phenylpentan-3-ol,CCC(CC)(C1=CC=CC=C1)O,496.65,11,"[1, 6, 8]",3,True,CHO,aromatic
9696,"(Z)-8,8-dimethoxynon-3-ene",CC/C=C\CCCC(C)(OC)OC,497.05,11,"[1, 6, 8]",3,True,CHO,ester
9697,propan-2-yl 2-phenylacetate,CC(C)OC(=O)CC1=CC=CC=C1,497.15,11,"[1, 6, 8]",3,True,CHO,ester
9698,N-methyldecan-1-amine,CCCCCCCCCCNC,497.15,11,"[1, 6, 7]",3,True,CHN,amine
9699,N-ethyl-N-propan-2-ylaniline,CCN(C1=CC=CC=C1)C(C)C,497.15,11,"[1, 6, 7]",3,True,CHN,aromatic
9700,"6-butyl-2,4-dimethyl-3,6-dihydro-2H-pyran",CCCCC1C=C(CC(O1)C)C,497.25,11,"[1, 6, 8]",3,True,CHO,ester
9701,cycloundecyne,C1CCCCC#CCCCC1,497.31,11,"[1, 6]",2,True,CH,alkyne
9702,cyclohexyl pentanoate,CCCCC(=O)OC1CCCCC1,497.65,11,"[1, 6, 8]",3,True,CHO,ester
9703,prop-2-enyl octanoate,CCCCCCCC(=O)OCC=C,498.15,11,"[1, 6, 8]",3,True,CHO,ester
9704,"2,3-dimethyl-1H-indene",CC1=C(C2=CC=CC=C2C1)C,498.15,11,"[1, 6]",2,True,CH,alkene
9705,"2,5-dihydroxy-5-methyl-3-(piperidin-1-ylamino)cyclopent-2-en-1-one",CC1(CC(=C(C1=O)O)NN2CCCCC2)O,498.65,11,"[1, 6, 7, 8]",4,True,CHON,alkene
9706,"2,2,6,6-tetramethylheptan-4-one",CC(C)(C)CC(=O)CC(C)(C)C,498.69,11,"[1, 6, 8]",3,True,CHO,ketone
9707,1-ethyl-1H-indene,CCC1C=CC2=CC=CC=C12,499.15,11,"[1, 6]",2,True,CH,alkene
9708,"2,5-dimethyl-1-pentylpyrrole",CCCCCN1C(=CC=C1C)C,499.15,11,"[1, 6, 7]",3,True,CHN,aromatic
9709,2-methyldecanal,CCCCCCCCC(C)C=O,499.5,11,"[1, 6, 8]",3,True,CHO,aldehyde
9710,"N,N-dimethyl-2-(4-methylphenyl)ethanamine",CC1=CC=C(C=C1)CCN(C)C,499.65,11,"[1, 6, 7]",3,True,CHN,aromatic
9711,"(Z)-7,7-diethoxyhept-3-ene",CC/C=C\CCC(OCC)OCC,499.84,11,"[1, 6, 8]",3,True,CHO,ester
9712,"1,1-diethoxyhept-2-ene",CCCCC=CC(OCC)OCC,499.84,11,"[1, 6, 8]",3,True,CHO,ester
9713,"(Z)-9,9-dimethoxynon-3-ene",CC/C=C\CCCCC(OC)OC,499.84,11,"[1, 6, 8]",3,True,CHO,ester
9714,1-methyl-6-methylideneazecane,CN1CCCCC(=C)CCCC1,499.91,11,"[1, 6, 7]",3,True,CHN,alkene
9715,(4-methoxyphenyl)methyl propanoate,CCC(=O)OCC1=CC=C(C=C1)OC,500.15,11,"[1, 6, 8]",3,True,CHO,ester
9716,"2-pentan-3-yloxycyclohexa-1,3-diene",CCC(CC)OC1=CCCC=C1,500.78,11,"[1, 6, 8]",3,True,CHO,ester
9717,"1-pentan-3-yloxycyclohexa-1,4-diene",CCC(CC)OC1=CCC=CC1,500.78,11,"[1, 6, 8]",3,True,CHO,ester
9718,"2,6-dimethyl-4-(3-methylbutyl)morpholine",CC1CN(CC(O1)C)CCC(C)C,500.84,11,"[1, 6, 7, 8]",4,True,CHON,ester
9719,2-butyl-4-methylphenol,CCCCC1=C(C=CC(=C1)C)O,501.15,11,"[1, 6, 8]",3,True,CHO,aromatic
9720,undecan-2-ol,CCCCCCCCCC(C)O,501.15,11,"[1, 6, 8]",3,True,CHO,alcohol
9721,"bicyclo[4.4.1]undeca-1,3,5,7,9-pentaene",C1C2=CC=CC=C1C=CC=C2,501.21,11,"[1, 6]",2,True,CH,alkene
9722,"bicyclo[5.3.1]undeca-1(10),2,4,6,8-pentaene",C1C2=CC=CC1=CC=CC=C2,501.21,11,"[1, 6]",2,True,CH,alkene
9723,"3,4-dimethyl-6-(2-methylprop-1-enyl)-3,6-dihydro-2H-pyran",CC1COC(C=C1C)C=C(C)C,501.29,11,"[1, 6, 8]",3,True,CHO,ester
9724,N-ethylnonan-1-amine,CCCCCCCCCNCC,501.45,11,"[1, 6, 7]",3,True,CHN,amine
9725,"2,3,3-trimethylindole",CC1=NC2=CC=CC=C2C1(C)C,501.6,11,"[1, 6, 7]",3,True,CHN,aromatic
9726,"N,N-dimethyl-1,1-bis[(2-methylpropan-2-yl)oxy]methanamine",CC(C)(C)OC(N(C)C)OC(C)(C)C,501.66,11,"[1, 6, 7, 8]",4,True,CHON,ester
9727,"8,8-dimethoxynon-3-yne",CCC#CCCCC(C)(OC)OC,501.89,11,"[1, 6, 8]",3,True,CHO,ester
9728,undecan-3-ol,CCCCCCCCC(CC)O,502.15,11,"[1, 6, 8]",3,True,CHO,alcohol
9729,1-butoxy-3-methylbenzene,CCCCOC1=CC=CC(=C1)C,502.35,11,"[1, 6, 8]",3,True,CHO,ester
9730,ethyl 2-phenylpropanoate,CCOC(=O)C(C)C1=CC=CC=C1,502.65,11,"[1, 6, 8]",3,True,CHO,ester
9731,"2,2-dimethylpentyl 2-methylprop-2-enoate",CCCC(C)(C)COC(=O)C(=C)C,502.83,11,"[1, 6, 8]",3,True,CHO,ester
9732,"bicyclo[4.4.1]undeca-1,3,5-triene",C1CCC2=CC=CC=C(C1)C2,502.89,11,"[1, 6]",2,True,CH,alkene
9733,"ethenyl 6,6-dimethylheptanoate",CC(C)(C)CCCCC(=O)OC=C,502.95,11,"[1, 6, 8]",3,True,CHO,ester
9734,"2,6-diethyl-N-methylaniline",CCC1=C(C(=CC=C1)CC)NC,503.15,11,"[1, 6, 7]",3,True,CHN,aromatic
9735,"4,8-dimethylnon-7-enal",CC(CCC=C(C)C)CCC=O,503.54,11,"[1, 6, 8]",3,True,CHO,alkene
9736,2-(6-methoxy-6-methylheptan-2-yl)oxirane,CC(CCCC(C)(C)OC)C1CO1,503.72,11,"[1, 6, 8]",3,True,CHO,ester
9737,"methyl pentacyclo[4.3.0.02,5.03,8.04,7]nonane-4-carboxylate",COC(=O)C12C3C4C1C5C2C3C5C4,503.81,11,"[1, 6, 8]",3,True,CHO,ester
9738,"(2E,4E)-1,1-diethoxyhepta-2,4-diene",CC/C=C/C=C/C(OCC)OCC,504.0,11,"[1, 6, 8]",3,True,CHO,ester
9739,(E)-undec-2-enal,CCCCCCCC/C=C/C=O,504.1,11,"[1, 6, 8]",3,True,CHO,alkene
9740,(Z)-undec-4-enal,CCCCCC/C=C\CCC=O,504.1,11,"[1, 6, 8]",3,True,CHO,alkene
9741,1-methoxy-4-(2-methylprop-1-enyl)benzene,CC(=CC1=CC=C(C=C1)OC)C,504.15,11,"[1, 6, 8]",3,True,CHO,ester
9742,"1,1-dimethoxynon-2-yne",CCCCCCC#CC(OC)OC,504.68,11,"[1, 6, 8]",3,True,CHO,ester
9743,"1,1-diethoxyhept-2-yne",CCCCC#CC(OCC)OCC,504.68,11,"[1, 6, 8]",3,True,CHO,ester
9744,3-butylheptan-2-one,CCCCC(CCCC)C(=O)C,504.71,11,"[1, 6, 8]",3,True,CHO,ketone
9745,2-methyldecan-3-one,CCCCCCCC(=O)C(C)C,504.71,11,"[1, 6, 8]",3,True,CHO,ketone
9746,2-methyldecan-4-one,CCCCCCC(=O)CC(C)C,504.71,11,"[1, 6, 8]",3,True,CHO,ketone
9747,"2,2-dimethoxy-3,3-dimethylbicyclo[2.2.1]heptane",CC1(C2CCC(C2)C1(OC)OC)C,505.01,11,"[1, 6, 8]",3,True,CHO,ester
9748,undecan-4-one,CCCCCCCC(=O)CCC,505.15,11,"[1, 6, 8]",3,True,CHO,ketone
9749,6-methyl-3-prop-2-enylhept-5-en-2-one,CC(=CCC(CC=C)C(=O)C)C,505.43,11,"[1, 6, 8]",3,True,CHO,alkene
9750,2-methylhexyl 2-methylprop-2-enoate,CCCCC(C)COC(=O)C(=C)C,505.62,11,"[1, 6, 8]",3,True,CHO,ester
9751,6-methylheptyl prop-2-enoate,CC(C)CCCCCOC(=O)C=C,505.74,11,"[1, 6, 8]",3,True,CHO,ester
9752,non-1-en-3-yl acetate,CCCCCCC(C=C)OC(=O)C,505.74,11,"[1, 6, 8]",3,True,CHO,ester
9753,2-methylheptyl prop-2-enoate,CCCCCC(C)COC(=O)C=C,505.74,11,"[1, 6, 8]",3,True,CHO,ester
9754,"3,3,5-trimethylhexyl acetate",CC(C)CC(C)(C)CCOC(=O)C,505.83,11,"[1, 6, 8]",3,True,CHO,ester
9755,"4-ethyl-2,2,5-trimethylhex-4-en-3-one",CCC(=C(C)C)C(=O)C(C)(C)C,505.84,11,"[1, 6, 8]",3,True,CHO,alkene
9756,"4-methyl-6-pent-2-en-2-yl-3,6-dihydro-2H-pyran",CCC=C(C)C1C=C(CCO1)C,505.96,11,"[1, 6, 8]",3,True,CHO,ester
9757,"4-methyl-2-pent-2-en-2-yl-3,6-dihydro-2H-pyran",CCC=C(C)C1CC(=CCO1)C,505.96,11,"[1, 6, 8]",3,True,CHO,ester
9758,heptyl 2-methylprop-2-enoate,CCCCCCCOC(=O)C(=C)C,506.06,11,"[1, 6, 8]",3,True,CHO,ester
9759,ethenyl nonanoate,CCCCCCCCC(=O)OC=C,506.18,11,"[1, 6, 8]",3,True,CHO,ester
9760,"methyl 2,2-dimethyloctanoate",CCCCCCC(C)(C)C(=O)OC,506.27,11,"[1, 6, 8]",3,True,CHO,ester
9761,methyl 2-methyl-2-propylhexanoate,CCCCC(C)(CCC)C(=O)OC,506.27,11,"[1, 6, 8]",3,True,CHO,ester
9762,"butyl 4,4-dimethylpentanoate",CCCCOC(=O)CCC(C)(C)C,506.27,11,"[1, 6, 8]",3,True,CHO,ester
9763,2-(2-ethylhexoxymethyl)oxirane,CCCCC(CC)COCC1CO1,506.95,11,"[1, 6, 8]",3,True,CHO,ester
9764,2-(6-methylheptoxymethyl)oxirane,CC(C)CCCCCOCC1CO1,506.95,11,"[1, 6, 8]",3,True,CHO,ester
9765,"methyl 2-ethenyl-2,5-dimethylhex-4-enoate",CC(=CCC(C)(C=C)C(=O)OC)C,506.99,11,"[1, 6, 8]",3,True,CHO,ester
9766,bis(3-methylbutyl) carbonate,CC(C)CCOC(=O)OCCC(C)C,507.15,11,"[1, 6, 8]",3,True,CHO,ester
9767,"3,7-dimethylnona-2,6-dienal",CCC(=CCCC(=CC=O)C)C,508.02,11,"[1, 6, 8]",3,True,CHO,alkene
9768,"1,1-dibutoxy-N,N-dimethylmethanamine",CCCCOC(N(C)C)OCCCC,508.12,11,"[1, 6, 7, 8]",4,True,CHON,ester
9769,4-tert-butyl-3-methylphenol,CC1=C(C=CC(=C1)O)C(C)(C)C,508.15,11,"[1, 6, 8]",3,True,CHO,aromatic
9770,1-benzylpyrrolidine,C1CCN(C1)CC2=CC=CC=C2,508.15,11,"[1, 6, 7]",3,True,CHN,aromatic
9771,"dimethyl 2,2-bis(prop-2-enyl)propanedioate",COC(=O)C(CC=C)(CC=C)C(=O)OC,508.15,11,"[1, 6, 8]",3,True,CHO,ester
9772,"(2E,4E)-undeca-2,4-dienal",CCCCCC/C=C/C=C/C=O,508.26,11,"[1, 6, 8]",3,True,CHO,alkene
9773,"8-methoxy-1,2,3,4,4a,5,6,8a-octahydronaphthalene",COC1=CCCC2C1CCCC2,508.4,11,"[1, 6, 8]",3,True,CHO,ester
9774,(4-ethyl-3-methylhexyl) acetate,CCC(CC)C(C)CCOC(=O)C,508.62,11,"[1, 6, 8]",3,True,CHO,ester
9775,"(E)-6,8-dimethylnon-5-en-2-one",CC(C)C/C(=C/CCC(=O)C)/C,508.75,11,"[1, 6, 8]",3,True,CHO,alkene
9776,heptyl 2-methylpropanoate,CCCCCCCOC(=O)C(C)C,509.06,11,"[1, 6, 8]",3,True,CHO,ester
9777,2-methylbutyl hexanoate,CCCCCC(=O)OCC(C)CC,509.06,11,"[1, 6, 8]",3,True,CHO,ester
9778,2-ethylhexyl propanoate,CCCCC(CC)COC(=O)CC,509.06,11,"[1, 6, 8]",3,True,CHO,ester
9779,pentyl 2-methylpentanoate,CCCCCOC(=O)C(C)CCC,509.06,11,"[1, 6, 8]",3,True,CHO,ester
9780,nonan-2-yl acetate,CCCCCCCC(C)OC(=O)C,509.06,11,"[1, 6, 8]",3,True,CHO,ester
9781,pentyl 4-methylpentanoate,CCCCCOC(=O)CCC(C)C,509.06,11,"[1, 6, 8]",3,True,CHO,ester
9782,heptan-2-yl butanoate,CCCCCC(C)OC(=O)CCC,509.06,11,"[1, 6, 8]",3,True,CHO,ester
9783,methyl 2-methylnonanoate,CCCCCCCC(C)C(=O)OC,509.06,11,"[1, 6, 8]",3,True,CHO,ester
9784,6-methylheptyl propanoate,CCC(=O)OCCCCCC(C)C,509.06,11,"[1, 6, 8]",3,True,CHO,ester
9785,butan-2-yl heptanoate,CCCCCCC(=O)OC(C)CC,509.06,11,"[1, 6, 8]",3,True,CHO,ester
9786,4-butyl-2-methylphenol,CCCCC1=CC(=C(C=C1)O)C,509.15,11,"[1, 6, 8]",3,True,CHO,aromatic
9787,3-methyl-1-phenylbutan-1-ol,CC(C)CC(C1=CC=CC=C1)O,509.15,11,"[1, 6, 8]",3,True,CHO,aromatic
9788,4-phenylmethoxybutan-1-ol,C1=CC=C(C=C1)COCCCCO,509.15,11,"[1, 6, 8]",3,True,CHO,ester
9789,undec-3-en-2-one,CCCCCCCC=CC(=O)C,509.31,11,"[1, 6, 8]",3,True,CHO,alkene
9790,"2,4-ditert-butyl-1,3-dioxolane",CC(C)(C)C1COC(O1)C(C)(C)C,509.33,11,"[1, 6, 8]",3,True,CHO,ester
9791,3-methyl-1-phenylbutan-2-one,CC(C)C(=O)CC1=CC=CC=C1,510.15,11,"[1, 6, 8]",3,True,CHO,aromatic
9792,2-but-3-en-2-ylcyclohex-3-ene-1-carbaldehyde,CC(C=C)C1C=CCCC1C=O,510.22,11,"[1, 6, 8]",3,True,CHO,alkene
9793,"methyl (E)-2,2,5-trimethylhept-4-enoate",CC/C(=C/CC(C)(C)C(=O)OC)/C,510.31,11,"[1, 6, 8]",3,True,CHO,ester
9794,2-tert-butyl-6-methylaniline,CC1=C(C(=CC=C1)C(C)(C)C)N,510.65,11,"[1, 6, 7]",3,True,CHN,aromatic
9795,1-methyl-2-prop-1-en-2-ylcyclohex-3-ene-1-carbaldehyde,CC(=C)C1C=CCCC1(C)C=O,510.78,11,"[1, 6, 8]",3,True,CHO,alkene
9796,"2-hexyl-4,5-dimethyl-1,3-dioxolane",CCCCCCC1OC(C(O1)C)C,511.12,11,"[1, 6, 8]",3,True,CHO,ester
9797,1-phenylpentan-2-one,CCCC(=O)CC1=CC=CC=C1,511.15,11,"[1, 6, 8]",3,True,CHO,aromatic
9798,"methyl 2,2-dimethyl-3-(2-methylprop-1-enyl)cyclopropane-1-carboxylate",CC(=CC1C(C1(C)C)C(=O)OC)C,511.18,11,"[1, 6, 8]",3,True,CHO,ester
9799,5-hexyl-4-methyloxolan-2-one,CCCCCCC1C(CC(=O)O1)C,511.57,11,"[1, 6, 8]",3,True,CHO,ester
9800,"tert-butyl N,N-bis(prop-2-enyl)carbamate",CC(C)(C)OC(=O)N(CC=C)CC=C,512.07,11,"[1, 6, 7, 8]",4,True,CHON,ester
9801,dipentyl carbonate,CCCCCOC(=O)OCCCCC,512.15,11,"[1, 6, 8]",3,True,CHO,ester
9802,3-(2-bicyclo[2.2.1]heptanyl)-2-methylpropanal,CC(CC1CC2CCC1C2)C=O,512.58,11,"[1, 6, 8]",3,True,CHO,aldehyde
9803,"methyl 3,7-dimethyloct-6-enoate",CC(CCC=C(C)C)CC(=O)OC,513.1,11,"[1, 6, 8]",3,True,CHO,ester
9804,"2-(2-methylpropyl)-1,3-benzoxazole",CC(C)CC1=NC2=CC=CC=C2O1,513.15,11,"[1, 6, 7, 8]",4,True,CHON,aromatic
9805,[(Z)-hex-3-enyl] 3-methylbutanoate,CC/C=C\CCOC(=O)CC(C)C,513.22,11,"[1, 6, 8]",3,True,CHO,ester
9806,[(Z)-hex-3-enyl] 2-methylbutanoate,CC/C=C\CCOC(=O)C(C)CC,513.22,11,"[1, 6, 8]",3,True,CHO,ester
9807,3-methylbutyl (E)-hex-2-enoate,CCC/C=C/C(=O)OCCC(C)C,513.22,11,"[1, 6, 8]",3,True,CHO,ester
9808,2-phenylpiperidine,C1CCNC(C1)C2=CC=CC=C2,513.4,11,"[1, 6, 7]",3,True,CHN,aromatic
9809,"(3E,5E)-undeca-3,5-dien-2-one",CCCCC/C=C/C=C/C(=O)C,513.47,11,"[1, 6, 8]",3,True,CHO,alkene
9810,hexyl (E)-2-methylbut-2-enoate,CCCCCCOC(=O)/C(=C/C)/C,513.54,11,"[1, 6, 8]",3,True,CHO,ester
9811,hexyl 3-methylbut-2-enoate,CCCCCCOC(=O)C=C(C)C,513.54,11,"[1, 6, 8]",3,True,CHO,ester
9812,3-methylbut-2-enyl hexanoate,CCCCCC(=O)OCC=C(C)C,513.54,11,"[1, 6, 8]",3,True,CHO,ester
9813,cyclohexyl 3-methylbutanoate,CC(C)CC(=O)OC1CCCCC1,513.65,11,"[1, 6, 8]",3,True,CHO,ester
9814,methyl (E)-dec-2-enoate,CCCCCCC/C=C/C(=O)OC,513.66,11,"[1, 6, 8]",3,True,CHO,ester
9815,[(E)-non-3-enyl] acetate,CCCCC/C=C/CCOC(=O)C,513.66,11,"[1, 6, 8]",3,True,CHO,ester
9816,ethyl (E)-non-2-enoate,CCCCCC/C=C/C(=O)OCC,513.66,11,"[1, 6, 8]",3,True,CHO,ester
9817,[(E)-non-2-enyl] acetate,CCCCCC/C=C/COC(=O)C,513.66,11,"[1, 6, 8]",3,True,CHO,ester
9818,[(Z)-hex-3-enyl] pentanoate,CCCCC(=O)OCC/C=C\CC,513.66,11,"[1, 6, 8]",3,True,CHO,ester
9819,[(E)-hex-2-enyl] pentanoate,CCCCC(=O)OC/C=C/CCC,513.66,11,"[1, 6, 8]",3,True,CHO,ester
9820,2-(4-propan-2-ylcyclohexyl)acetaldehyde,CC(C)C1CCC(CC1)CC=O,514.38,11,"[1, 6, 8]",3,True,CHO,aldehyde