,Name,SMILES,Tb,C Atom,Atom,Count Unique Atom,Pass Screen,Atom2,Func. Group
1889,"2-Propenoic Acid, 3-Phenyl-, (e)-",C1=CC=C(C=C1)/C=C/C(=O)O,573.15,9,"[1, 6, 8]",3,True,CHO,alkene
1890,"3-Butenoic Acid, 4-Phenyl-",C1=CC=C(C=C1)/C=C/CC(=O)O,575.15,10,"[1, 6, 8]",3,True,CHO,alkene
1891,1-(2-Naphthalenyl)ethanone,CC(=O)C1=CC2=CC=CC=C2C=C1,575.15,12,"[1, 6, 8]",3,True,CHO,aromatic
1892,"1,4-Benzenedicarboxylic Acid, Diethyl Ester",CCOC(=O)C1=CC=C(C=C1)C(=O)OCC,575.15,12,"[1, 6, 8]",3,True,CHO,ester
1893,"1,3-Benzenedicarboxylic Acid, Diethyl Ester",CCOC(=O)C1=CC(=CC=C1)C(=O)OCC,575.15,12,"[1, 6, 8]",3,True,CHO,ester
1894,"2h-1-Benzopyran-2-One, 6-Methyl-",CC1=CC2=C(C=C1)OC(=O)C=C2,577.15,10,"[1, 6, 8]",3,True,CHO,aromatic
1895,1-Naphthalenemethanol,C1=CC=C2C(=C1)C=CC=C2CO,577.15,11,"[1, 6, 8]",3,True,CHO,aromatic
1896,P-Phenylphenol,C1=CC=C(C=C1)C2=CC=C(C=C2)O,578.15,12,"[1, 6, 8]",3,True,CHO,aromatic
1897,"Hexanoic Acid, 2-Hydroxy-",CCCCC(C(=O)O)O,578.15,6,"[1, 6, 8]",3,True,CHO,alcohol
1898,"2(3h)-Furanone, 4,5-Dihydro-5-Phenyl-",C1CC(=O)OC1C2=CC=CC=C2,579.15,10,"[1, 6, 8]",3,True,CHO,ester
1899,"1-Naphthalenecarboxylic Acid, 3,4-Dihydro-",C1CC2=CC=CC=C2C(=C1)C(=O)O,579.15,11,"[1, 6, 8]",3,True,CHO,alkene
1900,"1,2,3-Trihydroxybenzene",C1=CC(=C(C(=C1)O)O)O,582.15,6,"[1, 6, 8]",3,True,CHO,aromatic
1901,Furan,C1=COC=C1,304.65,4,"[1, 6, 8]",3,True,CHO,aromatic
1902,4-Hydroxybenzaldehyde,C1=CC(=CC=C1C=O)O,583.15,7,"[1, 6, 8]",3,True,CHO,aldehyde
1903,"1,2,4-Butanetriol",C(CO)C(CO)O,585.15,4,"[1, 6, 8]",3,True,CHO,alcohol
1904,2-Benzofurancarboxylic Acid,C1=CC=C2C(=C1)C=C(O2)C(=O)O,585.65,9,"[1, 6, 8]",3,True,CHO,aromatic
1905,"2,2'-Biphenol",C1=CC=C(C(=C1)C2=CC=CC=C2O)O,593.15,12,"[1, 6, 8]",3,True,CHO,aromatic
1906,"Pentanedioic Acid, 2-Oxo-",C(CC(=O)O)C(=O)C(=O)O,596.15,5,"[1, 6, 8]",3,True,CHO,carboxylic_acid
1907,Tetraethylene Glycol,C(COCCOCCOCCO)O,601.15,8,"[1, 6, 8]",3,True,CHO,ester
1908,"Propane, 1,1'-(ethylidenebis(oxy))bis-",CCCOC(C)OCCC,306.15,8,"[1, 6, 8]",3,True,CHO,ester
1909,4-Hexylresorcinol,CCCCCCC1=C(C=C(C=C1)O)O,607.15,12,"[1, 6, 8]",3,True,CHO,aromatic
1910,Hexanedioic Acid,C(CCC(=O)O)CC(=O)O,610.65,6,"[1, 6, 8]",3,True,CHO,alcohol
1911,Diethyl Ether,CCOCC,307.75,4,"[1, 6, 8]",3,True,CHO,ester
1912,Pimelic Acid,C(CCC(=O)O)CCC(=O)O,615.15,7,"[1, 6, 8]",3,True,CHO,alcohol
1913,Suberic Acid,C(CCCC(=O)O)CCC(=O)O,618.65,8,"[1, 6, 8]",3,True,CHO,alcohol
1914,Propylene Oxide,CC1CO1,308.15,3,"[1, 6, 8]",3,True,CHO,ester
1915,Isopropenyl Methyl Ether,CC(=C)OC,308.15,4,"[1, 6, 8]",3,True,CHO,ester
1916,Ethyl Vinyl Ether,CCOC=C,308.65,4,"[1, 6, 8]",3,True,CHO,ester
1917,Tert-Butylhydroperoxide,CC(C)(C)OO,309.15,4,"[1, 6, 8]",3,True,CHO,ester
1918,Isopropyl Hydroperoxide,CC(C)OO,311.15,3,"[1, 6, 8]",3,True,CHO,ester
1919,Methyl Propyl Ether,CCCOC,312.25,4,"[1, 6, 8]",3,True,CHO,ester
1920,Trimellitic Anhydride,C1=CC2=C(C=C1C(=O)O)C(=O)OC2=O,663.15,9,"[1, 6, 8]",3,True,CHO,carboxylic_acid
1921,Dimethoxymethane,COCOC,315.15,3,"[1, 6, 8]",3,True,CHO,ester
1922,Ethoxydihydropyran,CCOC1CCC=CO1,315.15,7,"[1, 6, 8]",3,True,CHO,ester
1923,"3-Hexenal, (e)-",CC/C=C/CC=O,315.65,6,"[1, 6, 8]",3,True,CHO,alkene
1924,"1-Propene, 3-Methoxy-",COCC=C,317.15,4,"[1, 6, 8]",3,True,CHO,ester
1925,"Cyclopropane, Methoxy-",COC1CC1,317.84999999999997,4,"[1, 6, 8]",3,True,CHO,ester
1926,"2(5h)-Furanone, 5-Methylene-",C=C1C=CC(=O)O1,318.15,5,"[1, 6, 8]",3,True,CHO,ester
1927,"1,1,3-Trimethoxypropane",COCCC(OC)OC,318.65,6,"[1, 6, 8]",3,True,CHO,ester
1928,Citronellal,CC(CCC=C(C)C)CC=O,320.15,10,"[1, 6, 8]",3,True,CHO,alkene
1929,Trimethyleneoxide,C1COC1,320.75,3,"[1, 6, 8]",3,True,CHO,ester
1930,Propionaldehyde,CCC=O,321.15,3,"[1, 6, 8]",3,True,CHO,aldehyde
1931,Ethoxy-Ethyne,CCOC#C,323.15,4,"[1, 6, 8]",3,True,CHO,ester
1932,Glyoxal,C(=O)C=O,323.54999999999995,2,"[1, 6, 8]",3,True,CHO,aldehyde
1933,"2,2-Dimethyloxirane",CC1(CO1)C,325.15,4,"[1, 6, 8]",3,True,CHO,ester
1934,Acrolein,C=CC=O,325.75,3,"[1, 6, 8]",3,True,CHO,alkene
1935,Pyruvic Acid,CC(=O)C(=O)O,327.15,3,"[1, 6, 8]",3,True,CHO,carboxylic_acid
1936,Ethyl Isopropyl Ether,CCOC(C)C,327.25,5,"[1, 6, 8]",3,True,CHO,ester
1937,Ethyl Formate,CCOC=O,327.54999999999995,3,"[1, 6, 8]",3,True,CHO,ester
1938,"Furan, 2,3-Dihydro-",C1COC=C1,327.65,4,"[1, 6, 8]",3,True,CHO,ester
1939,Methyl T-Butyl Ether,CC(C)(C)OC,328.15,5,"[1, 6, 8]",3,True,CHO,ester
1940,"Propane, 2-(ethenyloxy)-",CC(C)OC=C,328.65,5,"[1, 6, 8]",3,True,CHO,ester
1941,Acetone,CC(=O)C,329.15,3,"[1, 6, 8]",3,True,CHO,ketone
1942,Methyl Acetate,CC(=O)OC,329.84999999999997,3,"[1, 6, 8]",3,True,CHO,ester
1943,Cyclohexyl-Hydroperoxide,C1CCC(CC1)OO,330.15,6,"[1, 6, 8]",3,True,CHO,ester
1944,Glycidyl Acrylate,C=CC(=O)OCC1CO1,330.15,6,"[1, 6, 8]",3,True,CHO,ester
1945,Pivalolactone,CC1(COC1=O)C,331.15,5,"[1, 6, 8]",3,True,CHO,ester
1946,Alpha-Methylene Butyrolactone,C=C1CCOC1=O,331.65,5,"[1, 6, 8]",3,True,CHO,ester
1947,Methyl Isobutyl Ether,CC(C)COC,331.75,5,"[1, 6, 8]",3,True,CHO,ester
1948,"1,3-Butylene Oxide",CC1CCO1,332.15,4,"[1, 6, 8]",3,True,CHO,ester
1949,Tetrahydrofurfuryl Methacrylate,CC(=C)C(=O)OCC1CCCO1,333.65,9,"[1, 6, 8]",3,True,CHO,ester
1950,2-Propynal,C#CC=O,333.15,3,"[1, 6, 8]",3,True,CHO,alkyne
1951,"4-Cyclopentene-1,3-Dione",C1C(=O)C=CC1=O,333.15,5,"[1, 6, 8]",3,True,CHO,alkene
1952,Allyl Methacrylate,CC(=C)C(=O)OCC=C,333.15,7,"[1, 6, 8]",3,True,CHO,ester
1953,"1,3-Butadien-1-Ol, Acetate",CC(=O)O/C=C/C=C,333.65,6,"[1, 6, 8]",3,True,CHO,ester
1954,"1,4,7,10-Tetraoxacyclododecane",C1COCCOCCOCCO1,338.65,8,"[1, 6, 8]",3,True,CHO,ester
1955,3-Methoxy-Propyne,COCC#C,336.15,4,"[1, 6, 8]",3,True,CHO,ester
1956,Ethyl Propyl Ether,CCCOCC,336.34999999999997,5,"[1, 6, 8]",3,True,CHO,ester
1957,"1,2-Butyleneoxide",CCC1CO1,336.45,4,"[1, 6, 8]",3,True,CHO,ester
1958,4-Hydroxy-3-Hexanone,CCC(C(=O)CC)O,337.15,6,"[1, 6, 8]",3,True,CHO,alcohol
1959,"1,1-Dimethoxyethane",CC(OC)OC,337.65,4,"[1, 6, 8]",3,True,CHO,ester
1960,Isobutyraldehyde,CC(C)C=O,337.65,4,"[1, 6, 8]",3,True,CHO,aldehyde
1961,"Peroxide, Diethyl",CCOOCC,338.15,4,"[1, 6, 8]",3,True,CHO,ester
1962,Tetrahydrofuran,C1CCOC1,338.15,4,"[1, 6, 8]",3,True,CHO,ester
1963,Propyl Vinyl Ether,CCCOC=C,338.15,5,"[1, 6, 8]",3,True,CHO,ester
1964,Sec-Butyl Methyl Ether,CCC(C)OC,338.15,5,"[1, 6, 8]",3,True,CHO,ester
1965,2-Methylfuran,CC1=CC=CO1,338.15,5,"[1, 6, 8]",3,True,CHO,aromatic
1966,3-Methylfuran,CC1=COC=C1,339.15,5,"[1, 6, 8]",3,True,CHO,aromatic
1967,"1-Propene, 3-(ethenyloxy)-",C=CCOC=C,339.15,5,"[1, 6, 8]",3,True,CHO,ester
1968,3-Heptanol,CCCCC(CC)O,339.15,7,"[1, 6, 8]",3,True,CHO,alcohol
1969,"2-Propenoic Acid, 1,2-Ethanediyl Ester",C=CC(=O)OCCOC(=O)C=C,340.15,8,"[1, 6, 8]",3,True,CHO,ester
1970,"2,5-Dihydrofuran",C1C=CCO1,339.65,4,"[1, 6, 8]",3,True,CHO,ester
1971,2-Hydroxyethyl Methacrylate,CC(=C)C(=O)OCCO,340.15,6,"[1, 6, 8]",3,True,CHO,ester
1972,T-Butyl Methacrylate,CC(=C)C(=O)OC(C)(C)C,340.15,8,"[1, 6, 8]",3,True,CHO,ester
1973,"Cyclohexanol, 1-Vinyl-",C=CC1(CCCCC1)O,340.65,8,"[1, 6, 8]",3,True,CHO,alkene
1974,"Ether, Ethyl Propenyl",CCO/C=C/C,344.65,5,"[1, 6, 8]",3,True,CHO,ester
1975,Allyl Ethyl Ether,CCOCC=C,340.75,5,"[1, 6, 8]",3,True,CHO,ester
1976,"Oxirane, Ethenyl-",C=CC1CO1,341.15,4,"[1, 6, 8]",3,True,CHO,ester
1977,"1-Propene, 3-Methoxy-2-Methyl-",CC(=C)COC,341.15,5,"[1, 6, 8]",3,True,CHO,ester
1978,Isopropyl Formate,CC(C)OC=O,341.34999999999997,4,"[1, 6, 8]",3,True,CHO,ester
1979,Methacrolein,CC(=C)C=O,341.54999999999995,4,"[1, 6, 8]",3,True,CHO,alkene
1980,Di-Isopropyl Ether,CC(C)OC(C)C,341.65,6,"[1, 6, 8]",3,True,CHO,ester
1981,Ethyl Methyl Ether,CCOC,280.54999999999995,3,"[1, 6, 8]",3,True,CHO,ester
1982,Safranal,CC1=C(C(CC=C1)(C)C)C=O,343.15,10,"[1, 6, 8]",3,True,CHO,alkene
1983,Methyl N-Butyl Ether,CCCCOC,343.25,5,"[1, 6, 8]",3,True,CHO,ester
1984,Nepetalactone,CC1CCC2C1C(=O)OC=C2C,344.65,10,"[1, 6, 8]",3,True,CHO,ester
1985,"3-Octanol, 3,7-Dimethyl-",CCC(C)(CCCC(C)C)O,345.15,10,"[1, 6, 8]",3,True,CHO,alcohol
1986,Methyl Glyoxal,CC(=O)C=O,345.15,3,"[1, 6, 8]",3,True,CHO,aldehyde
1987,3-Ethyl-3-Pentyl Hydroperoxide,CCC(CC)(CC)OO,345.15,7,"[1, 6, 8]",3,True,CHO,ester
1988,Ethyl T-Butyl Ether,CCOC(C)(C)C,345.75,6,"[1, 6, 8]",3,True,CHO,ester
1989,Vinyl Acetate,CC(=O)OC=C,345.95,4,"[1, 6, 8]",3,True,CHO,ester
1990,"1,4-Dioxaspiro(4.5)decane",C1CCC2(CC1)OCCO2,346.15,8,"[1, 6, 8]",3,True,CHO,ester
1991,"2,6-Dimethyl-1,3-Dioxan-4-Ol Acetate",CC1CC(OC(O1)C)OC(=O)C,347.65,8,"[1, 6, 8]",3,True,CHO,ester
1992,2-Ethylcyclohexanol,CCC1CCCCC1O,349.65,8,"[1, 6, 8]",3,True,CHO,alcohol
1993,Butyraldehyde,CCCC=O,347.95,4,"[1, 6, 8]",3,True,CHO,aldehyde
1994,Tert-Butyl Vinyl Ether,CC(C)(C)OC=C,348.15,6,"[1, 6, 8]",3,True,CHO,ester
1995,4-Phenyl-3-Butyn-2-One,CC(=O)C#CC1=CC=CC=C1,348.65,10,"[1, 6, 8]",3,True,CHO,alkyne
1996,2-Hydroxypropyl Acrylate,CC(COC(=O)C=C)O,350.15,6,"[1, 6, 8]",3,True,CHO,ester
1997,Ethyl Acetate,CCOC(=O)C,350.25,4,"[1, 6, 8]",3,True,CHO,ester
1998,Pivalaldehyde,CC(C)(C)C=O,350.65,5,"[1, 6, 8]",3,True,CHO,aldehyde
1999,"1,3-Dioxalane",C1COCO1,351.15,3,"[1, 6, 8]",3,True,CHO,ester
2000,2-Methyltetrahydrofuran,CC1CCCO1,351.15,5,"[1, 6, 8]",3,True,CHO,ester
2001,3-Hydroxymethylfuran,C1=COC=C1CO,352.65,5,"[1, 6, 8]",3,True,CHO,aromatic
2002,2-Butanone,CCC(=O)C,352.75,4,"[1, 6, 8]",3,True,CHO,ketone
2003,Methyl Propionate,CCC(=O)OC,352.95,4,"[1, 6, 8]",3,True,CHO,ester
2004,3-Methyl-4-Methoxybenzaldehyde,CC1=C(C=CC(=C1)C=O)OC,355.65,9,"[1, 6, 8]",3,True,CHO,ester
2005,"Oxetane, 3,3-Dimethyl-",CC1(COC1)C,353.75,5,"[1, 6, 8]",3,True,CHO,ester
2006,Ethylene Dimethylacrylate,C/C=C(/C(=O)OCCOC(=O)/C(=C/C)/C)\C,353.84999999999997,12,"[1, 6, 8]",3,True,CHO,ester
2007,Methyl Acrylate,COC(=O)C=C,353.84999999999997,4,"[1, 6, 8]",3,True,CHO,ester
2008,Propyl Formate,CCCOC=O,354.04999999999995,4,"[1, 6, 8]",3,True,CHO,ester
2009,"Butane, 2-Ethoxy-",CCC(C)OCC,354.15,6,"[1, 6, 8]",3,True,CHO,ester
2010,"Propane, 1-Ethoxy-2-Methyl-",CCOCC(C)C,354.15,6,"[1, 6, 8]",3,True,CHO,ester
2011,Methylvinylketone,CC(=O)C=C,354.54999999999995,4,"[1, 6, 8]",3,True,CHO,alkene
2012,"1,3-Dioxolane, 2-Methyl-",CC1OCCO1,354.65,4,"[1, 6, 8]",3,True,CHO,ester
2013,Isopropanol,CC(C)O,355.45,3,"[1, 6, 8]",3,True,CHO,alcohol
2014,T-Butanol,CC(C)(C)O,355.45,4,"[1, 6, 8]",3,True,CHO,alcohol
2015,Tert-Butyl Formate,CC(C)(C)OC=O,355.65,5,"[1, 6, 8]",3,True,CHO,ester
2016,Butanediol Diacrylate,C=CC(=O)OCCCCOC(=O)C=C,356.15,10,"[1, 6, 8]",3,True,CHO,ester
2017,Aldol,CC(CC=O)O,356.15,4,"[1, 6, 8]",3,True,CHO,alcohol
2018,"2,2-Dimethoxypropane",CC(C)(OC)OC,356.15,5,"[1, 6, 8]",3,True,CHO,ester
2019,Isobutyl Vinyl Ether,CC(C)COC=C,356.15,6,"[1, 6, 8]",3,True,CHO,ester
2020,Propyl Isopropyl Ether,CCCOC(C)C,356.15,6,"[1, 6, 8]",3,True,CHO,ester
2021,1-Octyn-3-Ol,CCCCCC(C#C)O,356.15,8,"[1, 6, 8]",3,True,CHO,alkyne
2022,"Formic Acid, 2-Propenyl Ester",C=CCOC=O,356.75,4,"[1, 6, 8]",3,True,CHO,ester
2023,3-Butyn-2-One,CC(=O)C#C,357.15,4,"[1, 6, 8]",3,True,CHO,alkyne
2024,"2(3h)-Furanone, Dihydro-5-Propyl-",CCCC1CCC(=O)O1,357.65,7,"[1, 6, 8]",3,True,CHO,ester
2025,Ethylene Glycol Dimethyl Ether,COCCOC,358.15,4,"[1, 6, 8]",3,True,CHO,ester
2026,"2h-Pyran, 3,4-Dihydro-",C1CC=COC1,359.15,5,"[1, 6, 8]",3,True,CHO,ester
2027,2(5h)-Furanone,C1C=CC(=O)O1,359.65,4,"[1, 6, 8]",3,True,CHO,ester
2028,"Furan, Tetrahydro-3-Methyl-",CC1CCOC1,359.65,5,"[1, 6, 8]",3,True,CHO,ester
2029,Trimethoxymethylbenzene,COC(C1=CC=CC=C1)(OC)OC,360.65,10,"[1, 6, 8]",3,True,CHO,ester
2030,2-Methyl-5-(1-Methylethenyl)cyclohexanone,CC1CCC(CC1=O)C(=C)C,360.65,10,"[1, 6, 8]",3,True,CHO,alkene
2031,"Alpha,alpha-Dimethoxytoluene",COC(C1=CC=CC=C1)OC,361.15,9,"[1, 6, 8]",3,True,CHO,ester
2032,"2,3-Butanedione",CC(=O)C(=O)C,361.15,4,"[1, 6, 8]",3,True,CHO,ketone
2033,Tetrahydropyran,C1CCOCC1,361.15,5,"[1, 6, 8]",3,True,CHO,ester
2034,"3,3-Dimethoxy-Propene",COC(C=C)OC,361.15,5,"[1, 6, 8]",3,True,CHO,ester
2035,Diethoxymethane,CCOCOCC,361.15,5,"[1, 6, 8]",3,True,CHO,ester
2036,"2-Propenoic Acid, Hexyl Ester",CCCCCCOC(=O)C=C,362.15,9,"[1, 6, 8]",3,True,CHO,ester
2037,Isopropyl Acetate,CC(C)OC(=O)C,361.75,5,"[1, 6, 8]",3,True,CHO,ester
2038,Methacrylic Anhydride,CC(=C)C(=O)OC(=O)C(=C)C,362.15,8,"[1, 6, 8]",3,True,CHO,alkene
2039,"Butane, 1-Methoxy-2-Methyl-",CCC(C)COC,363.15,6,"[1, 6, 8]",3,True,CHO,ester
2040,2-Hydroxypropyl Methacrylate,CC(COC(=O)C(=C)C)O,363.15,7,"[1, 6, 8]",3,True,CHO,ester
2041,4-Hydroxy-3-Methyl-2-Butanone,CC(CO)C(=O)C,365.65,5,"[1, 6, 8]",3,True,CHO,alcohol
2042,"Carbonic Acid, Dimethyl Ester",COC(=O)OC,363.65,3,"[1, 6, 8]",3,True,CHO,ester
2043,Allyl Propyl Ether,CCCOCC=C,364.15,6,"[1, 6, 8]",3,True,CHO,ester
2044,"Butane, 1-Methoxy-3-Methyl-",CC(C)CCOC,364.15,6,"[1, 6, 8]",3,True,CHO,ester
2045,"Benzenemethanol, Alpha-Methyl-, Propanoate",CCC(=O)OC(C)C1=CC=CC=C1,364.65,11,"[1, 6, 8]",3,True,CHO,ester
2046,Vinyl Propionate,CCC(=O)OC=C,364.34999999999997,5,"[1, 6, 8]",3,True,CHO,ester
2047,"1-Methoxy-1,3-Butadiene",CO/C=C/C=C,364.65,5,"[1, 6, 8]",3,True,CHO,ester
2048,"Acetaldehyde, Methoxy-",COCC=O,365.15,3,"[1, 6, 8]",3,True,CHO,ester
2049,2-Ethylfuran,CCC1=CC=CO1,365.15,6,"[1, 6, 8]",3,True,CHO,aromatic
2050,Butyl Ethyl Ether,CCCCOCC,365.45,6,"[1, 6, 8]",3,True,CHO,ester
2051,3-Methyl-1-Butanal,CC(C)CC=O,365.65,5,"[1, 6, 8]",3,True,CHO,aldehyde
2052,2-Ethylpropenal,CCC(=C)C=O,365.65,5,"[1, 6, 8]",3,True,CHO,alkene
2053,Methyl Isobutyrate,CC(C)C(=O)OC,365.65,5,"[1, 6, 8]",3,True,CHO,ester
2054,"1,3-Dioxolane, 2,2-Dimethyl-",CC1(OCCO1)C,365.65,5,"[1, 6, 8]",3,True,CHO,ester
2055,Pyrocarbonic Acid Diethyl Ester,CCOC(=O)OC(=O)OCC,366.65,6,"[1, 6, 8]",3,True,CHO,ester
2056,"Furan, 2,5-Dimethyl-",CC1=CC=C(O1)C,366.65,6,"[1, 6, 8]",3,True,CHO,aromatic
2057,Isopropyl Octanoate,CCCCCCCC(=O)OC(C)C,366.95,11,"[1, 6, 8]",3,True,CHO,ester
2058,Diethylene Glycol Diacrylate,C=CC(=O)OCCOCCOC(=O)C=C,367.15,10,"[1, 6, 8]",3,True,CHO,ester
2059,Allyl Ether,C=CCOCC=C,367.15,6,"[1, 6, 8]",3,True,CHO,ester
2060,Butyl Vinyl Ether,CCCCOC=C,367.15,6,"[1, 6, 8]",3,True,CHO,ester
2061,"2,4-Dimethylfuran",CC1=CC(=CO1)C,367.15,6,"[1, 6, 8]",3,True,CHO,aromatic
2062,2-Norbornane Methanol,C1CC2CC1CC2CO,367.15,8,"[1, 6, 8]",3,True,CHO,alcohol
2063,"Formic Acid, 2-Phenylethyl Ester",C1=CC=C(C=C1)CCOC=O,367.15,9,"[1, 6, 8]",3,True,CHO,ester
2064,"2,2-Methylenebisfuran",C1=COC(=C1)CC2=CC=CO2,367.15,9,"[1, 6, 8]",3,True,CHO,aromatic
2065,Methylphenylcarbinyl Acetate,CC(C1=CC=CC=C1)OC(=O)C,367.65,10,"[1, 6, 8]",3,True,CHO,ester
2066,"1,4-Dioxin, 2,3-Dihydro-",C1COC=CO1,367.25,4,"[1, 6, 8]",3,True,CHO,ester
2067,3-Methyl-2-Butanone,CC(C)C(=O)C,367.47999999999996,5,"[1, 6, 8]",3,True,CHO,ketone
2068,Ethyl Hydroperoxide,CCOO,368.15,2,"[1, 6, 8]",3,True,CHO,ester
2069,"Benzoic Acid, Vinyl Ester",C=COC(=O)C1=CC=CC=C1,368.65,9,"[1, 6, 8]",3,True,CHO,ester
2070,Benzyl Methacrylate,CC(=C)C(=O)OCC1=CC=CC=C1,369.65,11,"[1, 6, 8]",3,True,CHO,ester
2071,Acetylenedicarboxylic Acid Dimethyl Ester,COC(=O)C#CC(=O)OC,369.65,6,"[1, 6, 8]",3,True,CHO,ester
2072,Decahydro-2-Naphthalenone,C1CCC2CC(=O)CCC2C1,369.15,10,"[1, 6, 8]",3,True,CHO,ketone
2073,Neopentylglycol Diacrylate,CC(C)(COC(=O)C=C)COC(=O)C=C,369.15,11,"[1, 6, 8]",3,True,CHO,ester
2074,"1,2-Dimethoxypropane",CC(COC)OC,369.15,5,"[1, 6, 8]",3,True,CHO,ester
2075,3-Buten-2-Ol,CC(C=C)O,369.65,4,"[1, 6, 8]",3,True,CHO,alkene
2076,"3-Buten-2-Ol, 2-Methyl-",CC(C)(C=C)O,370.15,5,"[1, 6, 8]",3,True,CHO,alkene
2077,"Formic Acid, 1-Methylpropyl Ester",CCC(C)OC=O,370.15,5,"[1, 6, 8]",3,True,CHO,ester
2078,T-Butyl Acetate,CC(=O)OC(C)(C)C,370.15,6,"[1, 6, 8]",3,True,CHO,ester
2079,Citronellyl Formate,CC(CCC=C(C)C)CCOC=O,370.65,11,"[1, 6, 8]",3,True,CHO,ester
2080,1-Propanol,CCCO,370.34999999999997,3,"[1, 6, 8]",3,True,CHO,alcohol
2081,Allyl Alcohol,C=CCO,370.54999999999995,3,"[1, 6, 8]",3,True,CHO,alkene
2082,"3-Octanol, 3-Methyl-",CCCCCC(C)(CC)O,370.65,9,"[1, 6, 8]",3,True,CHO,alcohol
2083,"3-Buten-2-One, 3-Methyl-",CC(=C)C(=O)C,371.15,5,"[1, 6, 8]",3,True,CHO,alkene
2084,"1,3,5-Trioxane, 2,4,6-Tripropyl-",CCCC1OC(OC(O1)CCC)CCC,372.15,12,"[1, 6, 8]",3,True,CHO,ester
2085,Isobutyl Formate,CC(C)COC=O,371.34999999999997,5,"[1, 6, 8]",3,True,CHO,ester
2086,Cyclobutanone,C1CC(=O)C1,372.15,4,"[1, 6, 8]",3,True,CHO,ketone
2087,4-Pentenal,C=CCCC=O,372.15,5,"[1, 6, 8]",3,True,CHO,alkene
2088,"Pentane, 1-Methoxy-",CCCCCOC,372.15,6,"[1, 6, 8]",3,True,CHO,ester
2089,Ethyl Propionate,CCC(=O)OCC,372.25,5,"[1, 6, 8]",3,True,CHO,ester
2090,Ethyl Acrylate,CCOC(=O)C=C,372.54999999999995,5,"[1, 6, 8]",3,True,CHO,ester
2091,2-Butanol,CCC(C)O,372.65,4,"[1, 6, 8]",3,True,CHO,alcohol
2092,2-Vinylfuran,C=CC1=CC=CO1,372.65,6,"[1, 6, 8]",3,True,CHO,alkene
2093,Methylnitrite,CON=O,261.15,1,"[1, 6, 7, 8]",4,True,CHON,ester
2094,Methylamine,CN,266.84999999999997,1,"[1, 6, 7]",3,True,CHN,amine
2095,N-Methylolmethacrylamide,CC(=C)C(=O)NCO,373.15,5,"[1, 6, 7, 8]",4,True,CHON,alkene
2096,"1,2-Benzisoxazole",C1=CC=C2C(=C1)C=NO2,373.15,7,"[1, 6, 7, 8]",4,True,CHON,aromatic
2097,Phenoxypropazine,CC(COC1=CC=CC=C1)NN,373.15,9,"[1, 6, 7, 8]",4,True,CHON,ester
2098,"Ethylamine, 2-Phenoxy-",C1=CC=C(C=C1)OCCN,375.15,8,"[1, 6, 7, 8]",4,True,CHON,ester
2099,Paramethadione,CCC1(C(=O)N(C(=O)O1)C)C,374.65,7,"[1, 6, 7, 8]",4,True,CHON,ester
2100,"2-Butanamine, 3,3-Dimethyl-",CC(C(C)(C)C)N,375.15,6,"[1, 6, 7]",3,True,CHN,amine
2101,1-Ethyl-Pyrrolidine,CCN1CCCC1,377.15,6,"[1, 6, 7]",3,True,CHN,amine
2102,"1,2-Ethanediamine, N,n-Dimethyl-",CN(C)CCN,378.15,4,"[1, 6, 7]",3,True,CHN,amine
2103,"Butanenitrile, 4,4-Diethoxy-",CCOC(CCC#N)OCC,378.15,8,"[1, 6, 7, 8]",4,True,CHON,ester
2104,N-Pentylamine,CCCCCN,377.45,5,"[1, 6, 7]",3,True,CHN,amine
2105,Amyl Nitrite,CCCCCON=O,377.65,5,"[1, 6, 7, 8]",4,True,CHON,ester
2106,N-Ethylamphetamine,CCNC(C)CC1=CC=CC=C1,378.15,11,"[1, 6, 7]",3,True,CHN,aromatic
2107,"2-Piperidinone, 1-Methyl-",CN1CCCCC1=O,378.65,6,"[1, 6, 7, 8]",4,True,CHON,amide
2108,"Morpholine, 4-(1-Cyclopenten-1-Yl)-",C1CC=C(C1)N2CCOCC2,378.65,9,"[1, 6, 7, 8]",4,True,CHON,ester
2109,N-Methylpiperidine,CN1CCCCC1,380.15,6,"[1, 6, 7]",3,True,CHN,amine
2110,"P-Menthane-1,8-Diyldiamine",CC1(CCC(CC1)C(C)(C)N)N,389.65,10,"[1, 6, 7]",3,True,CHN,amine
2111,"1-Butanamine, N-Ethyl-",CCCCNCC,380.65,6,"[1, 6, 7]",3,True,CHN,amine
2112,Cyanoacetic Acid,C(C#N)C(=O)O,381.15,3,"[1, 6, 7, 8]",4,True,CHON,alcohol
2113,"Ethanamine, 2-Ethoxy-",CCOCCN,381.15,4,"[1, 6, 7, 8]",4,True,CHON,ester
2114,Cyclopentanamine,C1CCC(C1)N,381.15,5,"[1, 6, 7]",3,True,CHN,amine
2115,"Oxazole, 2,4-Dimethyl-",CC1=COC(=N1)C,381.15,5,"[1, 6, 7, 8]",4,True,CHON,aromatic
2116,"Pyridine, 1,2,3,6-Tetrahydro-",C1CNCC=C1,381.15,5,"[1, 6, 7]",3,True,CHN,alkene
2117,"2-Pentanamine, 4-Methyl-",CC(C)CC(C)N,382.15,6,"[1, 6, 7]",3,True,CHN,amine
2118,Dipropylamine,CCCNCCC,382.45,6,"[1, 6, 7]",3,True,CHN,amine
2119,"2-Methyl-4,5-Dihydro-Oxazole",CC1=NCCO1,384.15,4,"[1, 6, 7, 8]",4,True,CHON,ester
2120,Diallylamine,C=CCNCC=C,384.15,6,"[1, 6, 7]",3,True,CHN,alkene
2121,Allylpropylamine,CCCNCC=C,385.15,6,"[1, 6, 7]",3,True,CHN,alkene
2122,2-Pyridinemethanol,C1=CC=NC(=C1)CO,385.15,6,"[1, 6, 7, 8]",4,True,CHON,aromatic
2123,"2-Pyridineethanamine, N-Methyl-",CNCCC1=CC=CC=N1,386.65,8,"[1, 6, 7]",3,True,CHN,aromatic
2124,N-Hydroxyurethane,CCOC(=O)NO,387.65,3,"[1, 6, 7, 8]",4,True,CHON,ester
2125,Sym-Triazine,C1=NC=NC=N1,387.15,3,"[1, 6, 7]",3,True,CHN,aromatic
2126,Cinnoline,C1=CC=C2C(=C1)C=CN=N2,387.15,8,"[1, 6, 7]",3,True,CHN,aromatic
2127,Thurfyl Nicotinate,C1CC(OC1)COC(=O)C2=CN=CC=C2,388.15,11,"[1, 6, 7, 8]",4,True,CHON,ester
2128,"1,2-Ethanediamine, N-Methyl-",CNCCN,388.15,3,"[1, 6, 7]",3,True,CHN,amine
2129,Pyrazine,C1=CN=CC=N1,388.15,4,"[1, 6, 7]",3,True,CHN,aromatic
2130,N-Methylpyrrole,CN1C=CC=C1,388.15,5,"[1, 6, 7]",3,True,CHN,aromatic
2131,"1h-1,2,4-Triazole, 1-(phenylmethyl)-",C1=CC=C(C=C1)CN2C=NC=N2,388.15,9,"[1, 6, 7]",3,True,CHN,aromatic
2132,Pyridine,C1=CC=NC=C1,388.34999999999997,5,"[1, 6, 7]",3,True,CHN,aromatic
2133,"Carbonocyanidic Acid, Ethyl Ester",CCOC(=O)C#N,388.65,4,"[1, 6, 7, 8]",4,True,CHON,ester
2134,Tremorine,C1CCN(C1)CC#CCN2CCCC2,389.15,12,"[1, 6, 7]",3,True,CHN,alkyne