,Name,SMILES,Tb,C Atom,Atom,Count Unique Atom,Pass Screen,Atom2,Func. Group
10192,11-aminoundecanoic acid,C(CCCCCN)CCCCC(=O)O,669.32,11,"[1, 6, 7, 8]",4,True,CHON,carboxylic_acid
10193,1-[4-(2-hydroxypropyl)-3-methylpiperazin-1-yl]propan-2-ol,CC1CN(CCN1CC(C)O)CC(C)O,670.65,11,"[1, 6, 7, 8]",4,True,CHON,alcohol
10194,2-hydroxy-5-methylidene-3-piperidin-1-ylcyclopent-2-en-1-one,C=C1CC(=C(C1=O)O)N2CCCCC2,671.9,11,"[1, 6, 7, 8]",4,True,CHON,ketone
10195,"4,7,7-trimethyl-3-oxobicyclo[2.2.1]heptane-2-carboxylic acid",CC1(C2CCC1(C(=O)C2C(=O)O)C)C,673.5,11,"[1, 6, 8]",3,True,CHO,carboxylic_acid
10196,4-cyclohexylpyrrolidine-2-carboxylic acid,C1CCC(CC1)C2CC(NC2)C(=O)O,675.5,11,"[1, 6, 7, 8]",4,True,CHON,carboxylic_acid
10197,"3-[3-(3-hydroxypropoxy)-2,2-dimethylpropoxy]propan-1-ol",CC(C)(COCCCO)COCCCO,677.25,11,"[1, 6, 8]",3,True,CHO,ester
10198,"1,3-dimorpholin-4-ylpropane-1,3-dione",C1COCCN1C(=O)CC(=O)N2CCOCC2,677.7,11,"[1, 6, 7, 8]",4,True,CHON,ester
10199,4-piperidin-1-ylpiperidine-4-carboxamide,C1CCN(CC1)C2(CCNCC2)C(=O)N,678.41,11,"[1, 6, 7, 8]",4,True,CHON,amide
10200,"4,5-bis[(E)-but-2-enoxy]imidazolidin-2-one",C/C=C/COC1NC(=O)NC1OC/C=C/C,679.97,11,"[1, 6, 7, 8]",4,True,CHON,ester
10201,"2,6-dimethylhepta-1,6-dien-4-yl acetate",CC(=C)CC(CC(=C)C)OC(=O)C,683.05,11,"[1, 6, 8]",3,True,CHO,ester
10202,[(E)-[4-methyl-4-(prop-2-enoylamino)pentan-2-ylidene]amino] acetate,C/C(=N\OC(=O)C)/CC(C)(C)NC(=O)C=C,683.55,11,"[1, 6, 7, 8]",4,True,CHON,alkene
10203,"1,3,6,9,12,15-hexaoxacycloheptadecane",C1COCCOCCOCOCCOCCO1,684.17,11,"[1, 6, 8]",3,True,CHO,ester
10204,"5-[(3,5-dimethyl-4-oxo-1,3,5-triazinan-1-yl)methyl]-1,3-dimethyl-1,3,5-triazinan-2-one",CN1CN(CN(C1=O)C)CN2CN(C(=O)N(C2)C)C,684.38,11,"[1, 6, 7, 8]",4,True,CHON,amide
10205,2-(tert-butyldiazenyl)-5-methylhexan-2-ol,CC(C)CCC(C)(N=NC(C)(C)C)O,685.76,11,"[1, 6, 7, 8]",4,True,CHON,alcohol
10206,"tricyclo[3.3.3.01,5]undecane-2,8,9-trione",C1CC23CCC(=O)C2(C1=O)C(=O)CC3,688.65,11,"[1, 6, 8]",3,True,CHO,ketone
10207,11-hydroxyundecanoic acid,C(CCCCCO)CCCCC(=O)O,688.97,11,"[1, 6, 8]",3,True,CHO,alcohol
10208,"bicyclo[3.2.2]nona-6,8-diene-6,7-dicarbonitrile",C1CC2C=CC(C1)C(=C2C#N)C#N,690.01,11,"[1, 6, 7]",3,True,CHN,alkene
10209,"5,6-dimethylbicyclo[2.2.1]hepta-2,5-diene-2,3-dicarbonitrile",CC1=C(C2CC1C(=C2C#N)C#N)C,691.43,11,"[1, 6, 7]",3,True,CHN,alkene
10210,"2,3-dihydroxypropyl octanoate",CCCCCCCC(=O)OCC(CO)O,693.42,11,"[1, 6, 8]",3,True,CHO,ester
10211,"3-(2-methylpropyl)-6-propan-2-ylpiperazine-2,5-dione",CC(C)CC1C(=O)NC(C(=O)N1)C(C)C,698.02,11,"[1, 6, 7, 8]",4,True,CHON,amide
10212,"1,4,8,12-tetrazacyclopentadecane",C1CNCCCNCCNCCCNC1,708.13,11,"[1, 6, 7]",3,True,CHN,amine
10213,"2-isocyanatoethyl 2,6-diisocyanatohexanoate",C(CCN=C=O)CC(C(=O)OCCN=C=O)N=C=O,709.07,11,"[1, 6, 7, 8]",4,True,CHON,ester
10214,"1,2,3-tris(ethenyl)benzene",C=CC1=C(C(=CC=C1)C=C)C=C,336.65,12,"[1, 6]",2,True,CH,alkene
10215,"7-methoxy-2,2-dimethylchromene",CC1(C=CC2=C(O1)C=C(C=C2)OC)C,341.15,12,"[1, 6, 8]",3,True,CHO,ester
10216,6-oxo-6-phenylhexanoic acid,C1=CC=C(C=C1)C(=O)CCCCC(=O)O,351.15,12,"[1, 6, 8]",3,True,CHO,carboxylic_acid
10217,(2-methyl-5-prop-1-en-2-ylcyclohex-2-en-1-yl) acetate,CC1=CCC(CC1OC(=O)C)C(=C)C,351.15,12,"[1, 6, 8]",3,True,CHO,ester
10218,"2,2-bis(tert-butylperoxy)butane",CCC(C)(OOC(C)(C)C)OOC(C)(C)C,355.15,12,"[1, 6, 8]",3,True,CHO,ester
10219,"2-methyl-N,N-bis(2-methylprop-2-enyl)prop-2-en-1-amine",CC(=C)CN(CC(=C)C)CC(=C)C,357.15,12,"[1, 6, 7]",3,True,CHN,alkene
10220,2-octyloxolane,CCCCCCCCC1CCCO1,359.15,12,"[1, 6, 8]",3,True,CHO,ester
10221,prop-2-enyl nonanoate,CCCCCCCCC(=O)OCC=C,360.15,12,"[1, 6, 8]",3,True,CHO,ester
10222,N-hydroxy-N-naphthalen-2-ylacetamide,CC(=O)N(C1=CC2=CC=CC=C2C=C1)O,362.65,12,"[1, 6, 7, 8]",4,True,CHON,aromatic
10223,pentyl cyclohexanecarboxylate,CCCCCOC(=O)C1CCCCC1,367.65,12,"[1, 6, 8]",3,True,CHO,ester
10224,3-methyl-1-[1-(3-methylbutoxy)ethoxy]butane,CC(C)CCOC(C)OCCC(C)C,372.45,12,"[1, 6, 8]",3,True,CHO,ester
10225,"4-methoxytricyclo[6.2.1.02,7]undeca-2(7),3,5,9-tetraene",COC1=CC2=C(C=C1)C3CC2C=C3,372.65,12,"[1, 6, 8]",3,True,CHO,ester
10226,1-(4-methoxyphenyl)prop-2-enyl acetate,CC(=O)OC(C=C)C1=CC=C(C=C1)OC,374.15,12,"[1, 6, 8]",3,True,CHO,ester
10227,ethyl 1-(2-ethoxy-2-oxoethyl)piperidine-4-carboxylate,CCOC(=O)CN1CCC(CC1)C(=O)OCC,375.15,12,"[1, 6, 7, 8]",4,True,CHON,ester
10228,2-cyclohexylaniline,C1CCC(CC1)C2=CC=CC=C2N,379.15,12,"[1, 6, 7]",3,True,CHN,aromatic
10229,methyl 2-methyldecanoate,CCCCCCCCC(C)C(=O)OC,379.15,12,"[1, 6, 8]",3,True,CHO,ester
10230,4-(4-aminophenyl)phenol,C1=CC(=CC=C1C2=CC=C(C=C2)O)N,380.65,12,"[1, 6, 7, 8]",4,True,CHON,alcohol
10231,N-(4-phenylphenyl)hydroxylamine,C1=CC=C(C=C1)C2=CC=C(C=C2)NO,383.15,12,"[1, 6, 7, 8]",4,True,CHON,aromatic
10232,"N,N-dimethyldecanamide",CCCCCCCCCC(=O)N(C)C,383.15,12,"[1, 6, 7, 8]",4,True,CHON,amide
10233,(2-butan-2-ylphenyl) N-methylcarbamate,CCC(C)C1=CC=CC=C1OC(=O)NC,385.65,12,"[1, 6, 7, 8]",4,True,CHON,ester
10234,"(E)-3-(3,4,5-trimethoxyphenyl)prop-2-enal",COC1=CC(=CC(=C1OC)OC)/C=C/C=O,385.65,12,"[1, 6, 8]",3,True,CHO,ester
10235,cyclohexyl(pyridin-2-yl)methanone,C1CCC(CC1)C(=O)C2=CC=CC=N2,386.65,12,"[1, 6, 7, 8]",4,True,CHON,aromatic
10236,(3-methyl-5-propan-2-ylphenyl) N-methylcarbamate,CC1=CC(=CC(=C1)OC(=O)NC)C(C)C,390.15,12,"[1, 6, 7, 8]",4,True,CHON,ester
10237,"6,7-dimethoxy-1-methylisoquinoline",CC1=NC=CC2=CC(=C(C=C12)OC)OC,393.15,12,"[1, 6, 7, 8]",4,True,CHON,ester
10238,1-heptylpiperidine,CCCCCCCN1CCCCC1,394.15,12,"[1, 6, 7]",3,True,CHN,amine
10239,5-phenylhexan-2-one,CC(CCC(=O)C)C1=CC=CC=C1,396.65,12,"[1, 6, 8]",3,True,CHO,aromatic
10240,N-benzylpyridin-2-amine,C1=CC=C(C=C1)CNC2=CC=CC=N2,396.65,12,"[1, 6, 7]",3,True,CHN,aromatic
10241,"3,5-diethyl-2-propylpyridine",CCCC1=C(C=C(C=N1)CC)CC,398.15,12,"[1, 6, 7]",3,True,CHN,aromatic
10242,"1-(2,4-dimethylphenyl)pyrrole-2,5-dione",CC1=CC(=C(C=C1)N2C(=O)C=CC2=O)C,398.15,12,"[1, 6, 7, 8]",4,True,CHON,amide
10243,bis(prop-2-enyl) hexanedioate,C=CCOC(=O)CCCCC(=O)OCC=C,398.65,12,"[1, 6, 8]",3,True,CHO,ester
10244,cyclododecanone,C1CCCCCC(=O)CCCCC1,400.15,12,"[1, 6, 8]",3,True,CHO,ketone
10245,1-(5-methoxy-2H-chromen-3-yl)ethanone,CC(=O)C1=CC2=C(C=CC=C2OC)OC1,401.15,12,"[1, 6, 8]",3,True,CHO,ester
10246,1-(4-ethoxyphenyl)butan-1-one,CCCC(=O)C1=CC=C(C=C1)OCC,402.15,12,"[1, 6, 8]",3,True,CHO,ester
10247,6-prop-2-enoyloxyhexyl prop-2-enoate,C=CC(=O)OCCCCCCOC(=O)C=C,403.15,12,"[1, 6, 8]",3,True,CHO,ester
10248,cyclododecanamine,C1CCCCCC(CCCCC1)N,405.65,12,"[1, 6, 7]",3,True,CHN,amine
10249,"1,3-benzodioxol-5-ylmethyl butanoate",CCCC(=O)OCC1=CC2=C(C=C1)OCO2,405.65,12,"[1, 6, 8]",3,True,CHO,ester
10250,"N-[2-(diethylamino)ethyl]-N',N'-diethylethane-1,2-diamine",CCN(CC)CCNCCN(CC)CC,405.65,12,"[1, 6, 7]",3,True,CHN,amine
10251,8-propan-2-ylquinoline,CC(C)C1=CC=CC2=C1N=CC=C2,406.65,12,"[1, 6, 7]",3,True,CHN,aromatic
10252,"2,6-bis[(dimethylamino)methyl]phenol",CN(C)CC1=C(C(=CC=C1)CN(C)C)O,407.65,12,"[1, 6, 7, 8]",4,True,CHON,alcohol
10253,"2-butan-2-ylisoindole-1,3-dione",CCC(C)N1C(=O)C2=CC=CC=C2C1=O,407.65,12,"[1, 6, 7, 8]",4,True,CHON,amide
10254,2-cyclohexylidenecyclohexan-1-one,C1CCC(=C2CCCCC2=O)CC1,408.15,12,"[1, 6, 8]",3,True,CHO,alkene
10255,2-hexylphenol,CCCCCCC1=CC=CC=C1O,408.65,12,"[1, 6, 8]",3,True,CHO,aromatic
10256,cyclopentyl(phenyl)methanone,C1CCC(C1)C(=O)C2=CC=CC=C2,409.15,12,"[1, 6, 8]",3,True,CHO,aromatic
10257,3-phenylbut-2-enyl acetate,CC(=CCOC(=O)C)C1=CC=CC=C1,410.15,12,"[1, 6, 8]",3,True,CHO,ester
10258,"2-(5,6,7,8-tetrahydronaphthalen-1-yl)acetaldehyde",C1CCC2=C(C1)C=CC=C2CC=O,410.65,12,"[1, 6, 8]",3,True,CHO,aromatic
10259,3-O-benzyl 1-O-ethyl propanedioate,CCOC(=O)CC(=O)OCC1=CC=CC=C1,411.65,12,"[1, 6, 8]",3,True,CHO,ester
10260,"2,2,4-trimethyl-3,4-dihydro-1H-quinolin-6-amine",CC1CC(NC2=C1C=C(C=C2)N)(C)C,412.15,12,"[1, 6, 7]",3,True,CHN,aromatic
10261,7-prop-2-enylquinolin-8-ol,C=CCC1=C(C2=C(C=CC=N2)C=C1)O,413.65,12,"[1, 6, 7, 8]",4,True,CHON,alkene
10262,3-[cyclohexyl(3-hydroxypropyl)amino]propan-1-ol,C1CCC(CC1)N(CCCO)CCCO,414.15,12,"[1, 6, 7, 8]",4,True,CHON,alcohol
10263,2-(4-tert-butylphenyl)acetonitrile,CC(C)(C)C1=CC=C(C=C1)CC#N,414.65,12,"[1, 6, 7]",3,True,CHN,aromatic
10264,1-benzylcyclopentan-1-ol,C1CCC(C1)(CC2=CC=CC=C2)O,415.15,12,"[1, 6, 8]",3,True,CHO,aromatic
10265,"3-(5-butyl-1,2,4-oxadiazol-3-yl)phenol",CCCCC1=NC(=NO1)C2=CC(=CC=C2)O,416.15,12,"[1, 6, 7, 8]",4,True,CHON,aromatic
10266,"methyl 9,9-dimethoxynonanoate",COC(CCCCCCCC(=O)OC)OC,419.15,12,"[1, 6, 8]",3,True,CHO,ester
10267,hexyl pyridine-3-carboxylate,CCCCCCOC(=O)C1=CN=CC=C1,420.15,12,"[1, 6, 7, 8]",4,True,CHON,ester
10268,13-oxabicyclo[10.1.0]tridecane,C1CCCCCC2C(O2)CCCC1,420.15,12,"[1, 6, 8]",3,True,CHO,ester
10269,"2,4,6-tris(2-methylaziridin-1-yl)-1,3,5-triazine",CC1CN1C2=NC(=NC(=N2)N3CC3C)N4CC4C,425.15,12,"[1, 6, 7]",3,True,CHN,aromatic
10270,2-[(E)-2-pyridin-2-ylethenyl]pyridine,C1=CC=NC(=C1)/C=C/C2=CC=CC=N2,428.15,12,"[1, 6, 7]",3,True,CHN,alkene
10271,4-hexylphenol,CCCCCCC1=CC=C(C=C1)O,428.15,12,"[1, 6, 8]",3,True,CHO,aromatic
10272,"1-methoxy-2,3,4,5,6-pentamethylbenzene",CC1=C(C(=C(C(=C1C)C)OC)C)C,428.65,12,"[1, 6, 8]",3,True,CHO,ester
10273,2-(diethylamino)ethyl pyridine-3-carboxylate,CCN(CC)CCOC(=O)C1=CN=CC=C1,429.15,12,"[1, 6, 7, 8]",4,True,CHON,ester
10274,1-naphthalen-2-ylethanamine,CC(C1=CC2=CC=CC=C2C=C1)N,430.15,12,"[1, 6, 7]",3,True,CHN,aromatic
10275,2-phenylcyclohexan-1-one,C1CCC(=O)C(C1)C2=CC=CC=C2,430.65,12,"[1, 6, 8]",3,True,CHO,aromatic
10276,"1-(1,3-benzodioxol-5-yl)propyl acetate",CCC(C1=CC2=C(C=C1)OCO2)OC(=O)C,433.65,12,"[1, 6, 8]",3,True,CHO,ester
10277,"1-(4,7-dimethoxy-1-benzofuran-3-yl)ethanone",CC(=O)C1=COC2=C(C=CC(=C12)OC)OC,434.55,12,"[1, 6, 8]",3,True,CHO,ester
10278,"ethyl 2-(3,4-dimethoxyphenyl)-2-hydroxyacetate",CCOC(=O)C(C1=CC(=C(C=C1)OC)OC)O,438.15,12,"[1, 6, 8]",3,True,CHO,ester
10279,ethyl (E)-3-(2-methoxyphenyl)prop-2-enoate,CCOC(=O)/C=C/C1=CC=CC=C1OC,445.15,12,"[1, 6, 8]",3,True,CHO,ester
10280,1-(4-butoxyphenyl)ethanone,CCCCOC1=CC=C(C=C1)C(=O)C,445.15,12,"[1, 6, 8]",3,True,CHO,ester
10281,"2-ethoxy-4-(phenoxymethyl)-1,3-dioxolane",CCOC1OCC(O1)COC2=CC=CC=C2,446.65,12,"[1, 6, 8]",3,True,CHO,ester
10282,"3,3,6,6-tetramethylocta-1,7-diyne",CC(C)(CCC(C)(C)C#C)C#C,447.94,12,"[1, 6]",2,True,CH,alkyne
10283,"2-(3,4-diethoxyphenyl)acetonitrile",CCOC1=C(C=C(C=C1)CC#N)OCC,450.65,12,"[1, 6, 7, 8]",4,True,CHON,ester
10284,4-phenoxyphenol,C1=CC=C(C=C1)OC2=CC=C(C=C2)O,451.65,12,"[1, 6, 8]",3,True,CHO,ester
10285,"2,4,4,6,6-pentamethylhept-2-ene",CC(=CC(C)(C)CC(C)(C)C)C,453.15,12,"[1, 6]",2,True,CH,alkene
10286,"3-ethyl-2,2,5,5-tetramethylhexane",CCC(CC(C)(C)C)C(C)(C)C,453.15,12,"[1, 6]",2,True,CH,alkane
10287,"4-ethyl-2,2,6-trimethylheptane",CCC(CC(C)C)CC(C)(C)C,453.15,12,"[1, 6]",2,True,CH,alkane
10288,"2,2,5-trimethyl-3-propan-2-ylhexane",CC(C)CC(C(C)C)C(C)(C)C,453.15,12,"[1, 6]",2,True,CH,alkane
10289,"2,2,5-trimethyl-4-propan-2-ylhexane",CC(C)C(CC(C)(C)C)C(C)C,453.15,12,"[1, 6]",2,True,CH,alkane
10290,"8-methoxytricyclo[5.2.1.02,6]decane-4-carbaldehyde",COC1CC2CC1C3C2CC(C3)C=O,453.65,12,"[1, 6, 8]",3,True,CHO,ester
10291,"dodeca-1,11-diyne",C#CCCCCCCCCC#C,454.4,12,"[1, 6]",2,True,CH,alkyne
10292,benzyl 4-oxopentanoate,CC(=O)CCC(=O)OCC1=CC=CC=C1,455.15,12,"[1, 6, 8]",3,True,CHO,ester
10293,"2,2-dimethyl-4-propan-2-ylheptane",CCCC(CC(C)(C)C)C(C)C,455.15,12,"[1, 6]",2,True,CH,alkane
10294,"2,6-dimethyl-4-propan-2-ylheptane",CC(C)CC(CC(C)C)C(C)C,456.15,12,"[1, 6]",2,True,CH,alkane
10295,ethyl (E)-4-oxo-4-phenylbut-2-enoate,CCOC(=O)/C=C/C(=O)C1=CC=CC=C1,457.15,12,"[1, 6, 8]",3,True,CHO,ester
10296,"2,2,5,5-tetramethyloctane",CCCC(C)(C)CCC(C)(C)C,457.15,12,"[1, 6]",2,True,CH,alkane
10297,"2,6-dimethyl-4-propylheptane",CCCC(CC(C)C)CC(C)C,457.75,12,"[1, 6]",2,True,CH,alkane
10298,"1,2,3,4-tetrakis(ethenyl)cyclobutane",C=CC1C(C(C1C=C)C=C)C=C,457.88,12,"[1, 6]",2,True,CH,alkene
10299,"2,2,4,7-tetramethyloctane",CC(C)CCC(C)CC(C)(C)C,457.95,12,"[1, 6]",2,True,CH,alkane
10300,"2,2,4,6-tetramethyloctane",CCC(C)CC(C)CC(C)(C)C,458.15,12,"[1, 6]",2,True,CH,alkane
10301,4-tert-butyl-2-methylheptane,CCCC(CC(C)C)C(C)(C)C,458.15,12,"[1, 6]",2,True,CH,alkane
10302,"4-ethyl-2,4,6-trimethylheptane",CCC(C)(CC(C)C)CC(C)C,458.15,12,"[1, 6]",2,True,CH,alkane
10303,"2,2,3,6,6-pentamethylheptane",CC(CCC(C)(C)C)C(C)(C)C,458.15,12,"[1, 6]",2,True,CH,alkane
10304,"2,2,5,7-tetramethyloctane",CC(C)CC(C)CCC(C)(C)C,458.15,12,"[1, 6]",2,True,CH,alkane
10305,"2,4,4,6-tetramethyloctane",CCC(C)CC(C)(C)CC(C)C,458.15,12,"[1, 6]",2,True,CH,alkane
10306,"2,2,4,5,6-pentamethylheptane",CC(C)C(C)C(C)CC(C)(C)C,458.15,12,"[1, 6]",2,True,CH,alkane
10307,"4-ethyl-2,2,5-trimethylheptane",CCC(C)C(CC)CC(C)(C)C,459.15,12,"[1, 6]",2,True,CH,alkane
10308,"2,2,4,5,5-pentamethylheptane",CCC(C)(C)C(C)CC(C)(C)C,459.15,12,"[1, 6]",2,True,CH,alkane
10309,"2,2,5,5,6-pentamethylheptane",CC(C)C(C)(C)CCC(C)(C)C,459.15,12,"[1, 6]",2,True,CH,alkane
10310,"2,4,5,7-tetramethyloctane",CC(C)CC(C)C(C)CC(C)C,459.4,12,"[1, 6]",2,True,CH,alkane
10311,"2,2,4,5-tetramethyloctane",CCCC(C)C(C)CC(C)(C)C,460.15,12,"[1, 6]",2,True,CH,alkane
10312,"4-ethyl-2,2-dimethyloctane",CCCCC(CC)CC(C)(C)C,460.15,12,"[1, 6]",2,True,CH,alkane
10313,"2,2,3,5,5-pentamethylheptane",CCC(C)(C)CC(C)C(C)(C)C,460.15,12,"[1, 6]",2,True,CH,alkane
10314,"5-ethyl-2,2,4-trimethylheptane",CCC(CC)C(C)CC(C)(C)C,460.15,12,"[1, 6]",2,True,CH,alkane
10315,"5-ethyl-2,2,6-trimethylheptane",CCC(CCC(C)(C)C)C(C)C,460.15,12,"[1, 6]",2,True,CH,alkane
10316,"2,4,6,6-tetramethyloctane",CCC(C)(C)CC(C)CC(C)C,460.15,12,"[1, 6]",2,True,CH,alkane
10317,"2,2,5,5-tetramethyl-3,4-dimethylidenehexane",CC(C)(C)C(=C)C(=C)C(C)(C)C,460.82,12,"[1, 6]",2,True,CH,alkene
10318,ethyl (E)-2-cyano-3-phenylprop-2-enoate,CCOC(=O)/C(=C/C1=CC=CC=C1)/C#N,461.15,12,"[1, 6, 7, 8]",4,True,CHON,ester
10319,"2,2,3,4,6-pentamethylheptane",CC(C)CC(C)C(C)C(C)(C)C,461.15,12,"[1, 6]",2,True,CH,alkane
10320,"5-ethyl-2,2-dimethyloctane",CCCC(CC)CCC(C)(C)C,462.15,12,"[1, 6]",2,True,CH,alkane
10321,"2,4-dimethyl-4-propylheptane",CCCC(C)(CCC)CC(C)C,462.15,12,"[1, 6]",2,True,CH,alkane
10322,"2,5-dimethyl-4-propan-2-ylheptane",CCC(C)C(CC(C)C)C(C)C,462.15,12,"[1, 6]",2,True,CH,alkane
10323,"5-ethyl-2,2,5-trimethylheptane",CCC(C)(CC)CCC(C)(C)C,462.15,12,"[1, 6]",2,True,CH,alkane
10324,"2,2,4-trimethyl-3-propan-2-ylhexane",CCC(C)C(C(C)C)C(C)(C)C,462.15,12,"[1, 6]",2,True,CH,alkane
10325,2-naphthalen-1-ylethanol,C1=CC=C2C(=C1)C=CC=C2CCO,463.15,12,"[1, 6, 8]",3,True,CHO,aromatic
10326,"4-ethyl-2,6-dimethyloctane",CCC(C)CC(CC)CC(C)C,463.15,12,"[1, 6]",2,True,CH,alkane
10327,"4-ethyl-2,7-dimethyloctane",CCC(CCC(C)C)CC(C)C,463.15,12,"[1, 6]",2,True,CH,alkane
10328,"5-ethyl-3,5-dimethyloctane",CCCC(C)(CC)CC(C)CC,463.15,12,"[1, 6]",2,True,CH,alkane
10329,"2,2,5,6-tetramethyloctane",CCC(C)C(C)CCC(C)(C)C,463.15,12,"[1, 6]",2,True,CH,alkane
10330,2-methyl-4-propan-2-yloctane,CCCCC(CC(C)C)C(C)C,463.15,12,"[1, 6]",2,True,CH,alkane
10331,"2,5,5-trimethylnonane",CCCCC(C)(C)CCC(C)C,463.15,12,"[1, 6]",2,True,CH,alkane
10332,"2,6,6-trimethylnonane",CCCC(C)(C)CCCC(C)C,463.15,12,"[1, 6]",2,True,CH,alkane
10333,"3,3,5-trimethylnonane",CCCCC(C)CC(C)(C)CC,463.15,12,"[1, 6]",2,True,CH,alkane
10334,"3,6,6-trimethylnonane",CCCC(C)(C)CCC(C)CC,463.15,12,"[1, 6]",2,True,CH,alkane
10335,"2,2,6-trimethylnonane",CCCC(C)CCCC(C)(C)C,463.15,12,"[1, 6]",2,True,CH,alkane
10336,"2,4,4-trimethylnonane",CCCCCC(C)(C)CC(C)C,463.15,12,"[1, 6]",2,True,CH,alkane
10337,"3,3-diethyl-2,5-dimethylhexane",CCC(CC)(CC(C)C)C(C)C,463.15,12,"[1, 6]",2,True,CH,alkane
10338,"3,4-diethyl-2,5-dimethylhexane",CCC(C(C)C)C(CC)C(C)C,463.15,12,"[1, 6]",2,True,CH,alkane
10339,"3-ethyl-2,2,4,5-tetramethylhexane",CCC(C(C)C(C)C)C(C)(C)C,463.15,12,"[1, 6]",2,True,CH,alkane
10340,"2,5-dimethyl-4-propylheptane",CCCC(CC(C)C)C(C)CC,463.15,12,"[1, 6]",2,True,CH,alkane
10341,"2,2-dimethyl-3-propan-2-ylheptane",CCCCC(C(C)C)C(C)(C)C,463.15,12,"[1, 6]",2,True,CH,alkane
10342,"2,5-dimethyl-3-propan-2-ylheptane",CCC(C)CC(C(C)C)C(C)C,463.15,12,"[1, 6]",2,True,CH,alkane
10343,"4-ethyl-2,3,6-trimethylheptane",CCC(CC(C)C)C(C)C(C)C,463.15,12,"[1, 6]",2,True,CH,alkane
10344,"3-ethyl-2,5,5-trimethylheptane",CCC(CC(C)(C)CC)C(C)C,463.15,12,"[1, 6]",2,True,CH,alkane
10345,"3-ethyl-2,2,5-trimethylheptane",CCC(C)CC(CC)C(C)(C)C,463.15,12,"[1, 6]",2,True,CH,alkane
10346,"3-ethyl-2,2,6-trimethylheptane",CCC(CCC(C)C)C(C)(C)C,463.15,12,"[1, 6]",2,True,CH,alkane
10347,"2,3,5,7-tetramethyloctane",CC(C)CC(C)CC(C)C(C)C,463.15,12,"[1, 6]",2,True,CH,alkane
10348,"2,3,4,4,6-pentamethylheptane",CC(C)CC(C)(C)C(C)C(C)C,463.15,12,"[1, 6]",2,True,CH,alkane
10349,4-ethyl-2-methyl-3-propan-2-ylhexane,CCC(CC)C(C(C)C)C(C)C,463.15,12,"[1, 6]",2,True,CH,alkane
10350,"2,3,5-trimethyl-4-propan-2-ylhexane",CC(C)C(C)C(C(C)C)C(C)C,463.15,12,"[1, 6]",2,True,CH,alkane
10351,"3,4-diethyl-2,2-dimethylhexane",CCC(CC)C(CC)C(C)(C)C,463.15,12,"[1, 6]",2,True,CH,alkane
10352,"2,4,8-trimethylnonane",CC(C)CCCC(C)CC(C)C,464.15,12,"[1, 6]",2,True,CH,alkane
10353,"5-ethyl-3,3-dimethyloctane",CCCC(CC)CC(C)(C)CC,464.15,12,"[1, 6]",2,True,CH,alkane
10354,"3-ethyl-5,5-dimethyloctane",CCCC(C)(C)CC(CC)CC,464.15,12,"[1, 6]",2,True,CH,alkane
10355,2-methyl-5-propan-2-yloctane,CCCC(CCC(C)C)C(C)C,464.15,12,"[1, 6]",2,True,CH,alkane
10356,"4-ethyl-2,4-dimethyloctane",CCCCC(C)(CC)CC(C)C,464.15,12,"[1, 6]",2,True,CH,alkane
10357,"3,5,5-trimethylnonane",CCCCC(C)(C)CC(C)CC,464.15,12,"[1, 6]",2,True,CH,alkane
10358,"4,4,6-trimethylnonane",CCCC(C)CC(C)(C)CCC,464.15,12,"[1, 6]",2,True,CH,alkane
10359,4-tert-butyloctane,CCCCC(CCC)C(C)(C)C,464.15,12,"[1, 6]",2,True,CH,alkane
10360,2-methyl-4-propyloctane,CCCCC(CCC)CC(C)C,464.15,12,"[1, 6]",2,True,CH,alkane
10361,"2,2,4-trimethylnonane",CCCCCC(C)CC(C)(C)C,464.15,12,"[1, 6]",2,True,CH,alkane
10362,"2,2,5-trimethylnonane",CCCCC(C)CCC(C)(C)C,464.15,12,"[1, 6]",2,True,CH,alkane
10363,"4-ethyl-2,2,3,5-tetramethylhexane",CCC(C(C)C)C(C)C(C)(C)C,464.15,12,"[1, 6]",2,True,CH,alkane
10364,"3-ethyl-2,4,6-trimethylheptane",CCC(C(C)C)C(C)CC(C)C,464.15,12,"[1, 6]",2,True,CH,alkane
10365,"2,2,6,7-tetramethyloctane",CC(C)C(C)CCCC(C)(C)C,464.15,12,"[1, 6]",2,True,CH,alkane
10366,"2,4,4,5-tetramethyloctane",CCCC(C)C(C)(C)CC(C)C,464.15,12,"[1, 6]",2,True,CH,alkane
10367,"2,4,4,6,6-pentamethylhept-1-ene",CC(=C)CC(C)(C)CC(C)(C)C,464.26,12,"[1, 6]",2,True,CH,alkene
10368,"2,3,3,5,6-pentamethylheptane",CC(C)C(C)CC(C)(C)C(C)C,465.15,12,"[1, 6]",2,True,CH,alkane
10369,"2,2,3,5-tetramethyloctane",CCCC(C)CC(C)C(C)(C)C,465.15,12,"[1, 6]",2,True,CH,alkane
10370,"2,2,4,4-tetramethyloctane",CCCCC(C)(C)CC(C)(C)C,465.15,12,"[1, 6]",2,True,CH,alkane
10371,3-methyl-5-propan-2-yloctane,CCCC(CC(C)CC)C(C)C,465.15,12,"[1, 6]",2,True,CH,alkane
10372,"6-ethyl-2,4-dimethyloctane",CCC(CC)CC(C)CC(C)C,465.15,12,"[1, 6]",2,True,CH,alkane
10373,"4-ethyl-2,5-dimethyloctane",CCCC(C)C(CC)CC(C)C,465.15,12,"[1, 6]",2,True,CH,alkane
10374,"2,4,6-trimethylnonane",CCCC(C)CC(C)CC(C)C,465.15,12,"[1, 6]",2,True,CH,alkane
10375,"2,3-dimethyl-4-propan-2-ylheptane",CCCC(C(C)C)C(C)C(C)C,465.15,12,"[1, 6]",2,True,CH,alkane
10376,"2,4-dimethyl-3-propan-2-ylheptane",CCCC(C)C(C(C)C)C(C)C,465.15,12,"[1, 6]",2,True,CH,alkane
10377,"2,4-dimethyl-4-propan-2-ylheptane",CCCC(C)(CC(C)C)C(C)C,465.15,12,"[1, 6]",2,True,CH,alkane
10378,"5-ethyl-2,4,4-trimethylheptane",CCC(CC)C(C)(C)CC(C)C,465.15,12,"[1, 6]",2,True,CH,alkane
10379,"4-ethyl-2,5,5-trimethylheptane",CCC(CC(C)C)C(C)(C)CC,465.15,12,"[1, 6]",2,True,CH,alkane
10380,"5-ethyl-2,2,3-trimethylheptane",CCC(CC)CC(C)C(C)(C)C,465.15,12,"[1, 6]",2,True,CH,alkane
10381,"3-ethyl-2,2,4-trimethylheptane",CCCC(C)C(CC)C(C)(C)C,465.15,12,"[1, 6]",2,True,CH,alkane
10382,"2,4,5,5-tetramethyloctane",CCCC(C)(C)C(C)CC(C)C,465.15,12,"[1, 6]",2,True,CH,alkane
10383,"2,4,4-trimethyl-3-propan-2-ylhexane",CCC(C)(C)C(C(C)C)C(C)C,465.15,12,"[1, 6]",2,True,CH,alkane
10384,"4,5-diethyloctane",CCCC(CC)C(CC)CCC,466.15,12,"[1, 6]",2,True,CH,alkane
10385,"6-ethyl-2,2-dimethyloctane",CCC(CC)CCCC(C)(C)C,466.15,12,"[1, 6]",2,True,CH,alkane
10386,"5-ethyl-2,4-dimethyloctane",CCCC(CC)C(C)CC(C)C,466.15,12,"[1, 6]",2,True,CH,alkane