,Name,SMILES,Tb,C Atom,Atom,Count Unique Atom,Pass Screen,Atom2,Func. Group
5296,2-propan-2-yl-1H-pyrrole,CC(C)C1=CC=CN1,445.15,7,"[1, 6, 7]",3,True,CHN,aromatic
5297,"1-(3,4-dihydro-2H-pyridin-1-yl)ethanone",CC(=O)N1CCCC=C1,445.18,7,"[1, 6, 7, 8]",4,True,CHON,amide
5298,bicyclo[2.2.1]heptan-7-one,C1CC2CCC1C2=O,445.33,7,"[1, 6, 8]",3,True,CHO,ketone
5299,3-butoxypropan-1-amine,CCCCOCCCN,446.15,7,"[1, 6, 7, 8]",4,True,CHON,ester
5300,"2,6-dimethoxyoxane",COC1CCCC(O1)OC,446.43,7,"[1, 6, 8]",3,True,CHO,ester
5301,"2,4-dimethylpent-1-en-3-ol",CC(C)C(C(=C)C)O,447.62,7,"[1, 6, 8]",3,True,CHO,alkene
5302,azocane,C1CCCNCCC1,447.65,7,"[1, 6, 7]",3,True,CHN,amine
5303,2-methylhex-5-en-3-ol,CC(C)C(CC=C)O,447.74,7,"[1, 6, 8]",3,True,CHO,alkene
5304,5-methylhex-5-en-2-ol,CC(CCC(=C)C)O,448.06,7,"[1, 6, 8]",3,True,CHO,alkene
5305,5-methylhex-5-en-3-ol,CCC(CC(=C)C)O,448.06,7,"[1, 6, 8]",3,True,CHO,alkene
5306,4-ethoxypiperidine,CCOC1CCNCC1,448.15,7,"[1, 6, 7, 8]",4,True,CHON,ester
5307,methyl hex-5-enoate,COC(=O)CCCC=C,448.15,7,"[1, 6, 8]",3,True,CHO,ester
5308,ethyl 2-hydroxypentanoate,CCCC(C(=O)OCC)O,448.15,7,"[1, 6, 8]",3,True,CHO,ester
5309,hept-6-en-3-ol,CCC(CCC=C)O,448.18,7,"[1, 6, 8]",3,True,CHO,alkene
5310,"N,N-dimethyl-N'-(2-methylpropyl)methanimidamide",CC(C)CN=CN(C)C,448.44,7,"[1, 6, 7]",3,True,CHN,amine
5311,"N'-butan-2-yl-N,N-dimethylmethanimidamide",CCC(C)N=CN(C)C,448.44,7,"[1, 6, 7]",3,True,CHN,amine
5312,"heptane-2,4-dione",CCCC(=O)CC(=O)C,448.65,7,"[1, 6, 8]",3,True,CHO,ketone
5313,"7a-ethyl-1,3,5,7-tetrahydro-[1,3]oxazolo[3,4-c][1,3]oxazole",CCC12COCN1COC2,448.76,7,"[1, 6, 7, 8]",4,True,CHON,ester
5314,2-methoxycyclohexan-1-ol,COC1CCCCC1O,450.65,7,"[1, 6, 8]",3,True,CHO,ester
5315,2-methylhexan-1-ol,CCCCC(C)CO,451.5,7,"[1, 6, 8]",3,True,CHO,alcohol
5316,dimethyl 2-ethylpropanedioate,CCC(C(=O)OC)C(=O)OC,451.65,7,"[1, 6, 8]",3,True,CHO,ester
5317,oxiran-2-ylmethyl butanoate,CCCC(=O)OCC1CO1,451.67,7,"[1, 6, 8]",3,True,CHO,ester
5318,1-(2-ethoxyethoxy)-2-methoxyethane,CCOCCOCCOC,452.15,7,"[1, 6, 8]",3,True,CHO,ester
5319,ethyl 3-hydroxy-3-methylbutanoate,CCOC(=O)CC(C)(C)O,452.65,7,"[1, 6, 8]",3,True,CHO,ester
5320,4-(oxiran-2-ylmethyl)morpholine,C1COCCN1CC2CO2,452.79,7,"[1, 6, 7, 8]",4,True,CHON,ester
5321,"5,5-dimethoxypentanal",COC(CCCC=O)OC,452.82,7,"[1, 6, 8]",3,True,CHO,ester
5322,"cyclohepta-2,4,6-trien-1-one",C1=CC=CC(=O)C=C1,453.55,7,"[1, 6, 8]",3,True,CHO,aromatic
5323,cyclohept-3-en-1-one,C1CC=CCC(=O)C1,453.65,7,"[1, 6, 8]",3,True,CHO,alkene
5324,2-cyclopent-3-en-1-ylethanol,C1C=CCC1CCO,454.15,7,"[1, 6, 8]",3,True,CHO,alkene
5325,2-methylhex-5-en-3-yn-2-ol,CC(C)(C#CC=C)O,454.39,7,"[1, 6, 8]",3,True,CHO,alkene
5326,"cyclohepta-3,5-dien-1-one",C1C=CC=CCC1=O,454.39,7,"[1, 6, 8]",3,True,CHO,alkene
5327,ethyl 2-acetyloxypropanoate,CCOC(=O)C(C)OC(=O)C,455.15,7,"[1, 6, 8]",3,True,CHO,ester
5328,(E)-2-methylhex-4-en-3-ol,C/C=C/C(C(C)C)O,455.22,7,"[1, 6, 8]",3,True,CHO,alkene
5329,cyclohept-2-en-1-one,C1CCC(=O)C=CC1,455.23,7,"[1, 6, 8]",3,True,CHO,alkene
5330,(E)-hept-4-en-2-ol,CC/C=C/CC(C)O,455.66,7,"[1, 6, 8]",3,True,CHO,alkene
5331,(1-ethylpyrrolidin-2-yl)methanamine,CCN1CCCC1CN,455.74,7,"[1, 6, 7]",3,True,CHN,amine
5332,(Z)-hept-4-en-1-ol,CC/C=C\CCCO,456.1,7,"[1, 6, 8]",3,True,CHO,alkene
5333,2-pentoxyacetonitrile,CCCCCOCC#N,456.65,7,"[1, 6, 7, 8]",4,True,CHON,ester
5334,"2,3-dimethylcyclopent-2-en-1-one",CC1=C(C(=O)CC1)C,456.65,7,"[1, 6, 8]",3,True,CHO,alkene
5335,5-methylhex-5-en-3-yn-2-ol,CC(C#CC(=C)C)O,457.06,7,"[1, 6, 8]",3,True,CHO,alkene
5336,"(2,2-dimethyl-3-oxopropyl) acetate",CC(=O)OCC(C)(C)C=O,457.15,7,"[1, 6, 8]",3,True,CHO,ester
5337,N-tert-butylprop-2-enamide,CC(C)(C)NC(=O)C=C,457.25,7,"[1, 6, 7, 8]",4,True,CHON,alkene
5338,N-(1-methoxypropyl)-N-propylnitrous amide,CCCN(C(CC)OC)N=O,457.58,7,"[1, 6, 7, 8]",4,True,CHON,ester
5339,"2-methyl-1,4-diazabicyclo[2.2.2]octane",CC1CN2CCN1CC2,457.65,7,"[1, 6, 7]",3,True,CHN,amine
5340,3-methylhex-4-yn-3-ol,CCC(C)(C#CC)O,457.71,7,"[1, 6, 8]",3,True,CHO,alkyne
5341,ethyl 2-cyano-2-methylpropanoate,CCOC(=O)C(C)(C)C#N,458.15,7,"[1, 6, 7, 8]",4,True,CHON,ester
5342,2-methoxycyclohexan-1-one,COC1CCCCC1=O,458.15,7,"[1, 6, 8]",3,True,CHO,ester
5343,2-pentoxyethanol,CCCCCOCCO,458.15,7,"[1, 6, 8]",3,True,CHO,ester
5344,5-methylcyclohex-2-en-1-one,CC1CC=CC(=O)C1,458.15,7,"[1, 6, 8]",3,True,CHO,alkene
5345,1-ethylpyridin-2-one,CCN1C=CC=CC1=O,458.29,7,"[1, 6, 7, 8]",4,True,CHON,aromatic
5346,hept-6-enenitrile,C=CCCCCC#N,458.52,7,"[1, 6, 7]",3,True,CHN,alkene
5347,2-methoxypiperidine-1-carbaldehyde,COC1CCCCN1C=O,458.56,7,"[1, 6, 7, 8]",4,True,CHON,ester
5348,"6a-methyl-2,3,3a,4-tetrahydrofuro[2,3-b]furan-5-one",CC12C(CCO1)CC(=O)O2,458.65,7,"[1, 6, 8]",3,True,CHO,ester
5349,tert-butyl N-(cyanomethyl)carbamate,CC(C)(C)OC(=O)NCC#N,459.15,7,"[1, 6, 7, 8]",4,True,CHON,ester
5350,1-ethylpiperidin-4-one,CCN1CCC(=O)CC1,459.97,7,"[1, 6, 7, 8]",4,True,CHON,ketone
5351,"N,N'-diethylpropane-1,3-diamine",CCNCCCNCC,460.1,7,"[1, 6, 7]",3,True,CHN,amine
5352,2-ethyl-3-methoxypyrazine,CCC1=NC=CN=C1OC,460.15,7,"[1, 6, 7, 8]",4,True,CHON,ester
5353,"(2E,4E)-hepta-2,4-dien-1-ol",CC/C=C/C=C/CO,460.26,7,"[1, 6, 8]",3,True,CHO,alkene
5354,"2,2,6-trimethyl-1,3-dioxin-4-one",CC1=CC(=O)OC(O1)(C)C,460.32,7,"[1, 6, 8]",3,True,CHO,ester
5355,3-pyrrolidin-1-ylpropan-1-amine,C1CCN(C1)CCCN,460.41,7,"[1, 6, 7]",3,True,CHN,amine
5356,"2,4,10-trioxatricyclo[3.3.1.13,7]decane",C1C2CC3CC1OC(O2)O3,460.43,7,"[1, 6, 8]",3,True,CHO,ester
5357,hept-4-yn-2-ol,CCC#CCC(C)O,460.5,7,"[1, 6, 8]",3,True,CHO,alkyne
5358,hept-4-yn-3-ol,CCC#CC(CC)O,460.5,7,"[1, 6, 8]",3,True,CHO,alkyne
5359,hept-2-yn-1-ol,CCCCC#CCO,460.94,7,"[1, 6, 8]",3,True,CHO,alkyne
5360,hept-3-yn-1-ol,CCCC#CCCO,460.94,7,"[1, 6, 8]",3,True,CHO,alkyne
5361,"3-(dimethylamino)-2,2-dimethylpropan-1-ol",CC(C)(CN(C)C)CO,461.15,7,"[1, 6, 7, 8]",4,True,CHON,alcohol
5362,"2-ethyl-1,1,3,3-tetramethylguanidine",CCN=C(N(C)C)N(C)C,461.2,7,"[1, 6, 7]",3,True,CHN,amine
5363,"N'-[2-(dimethylamino)ethyl]-N,N-dimethylmethanimidamide",CN(C)CCN=CN(C)C,461.32,7,"[1, 6, 7]",3,True,CHN,amine
5364,tert-butyl N-ethenylcarbamate,CC(C)(C)OC(=O)NC=C,461.6,7,"[1, 6, 7, 8]",4,True,CHON,ester
5365,1-azabicyclo[2.2.2]octan-3-one,C1CN2CCC1C(=O)C2,462.44,7,"[1, 6, 7, 8]",4,True,CHON,ketone
5366,1-azabicyclo[2.2.2]octan-3-amine,C1CN2CCC1C(C2)N,462.48,7,"[1, 6, 7]",3,True,CHN,amine
5367,"1,3-dimethylcyclopentan-1-ol",CC1CCC(C1)(C)O,462.79,7,"[1, 6, 8]",3,True,CHO,alcohol
5368,"1,5-dimethyl-6,7,8-trioxabicyclo[3.2.1]octane",CC12CCCC(O1)(OO2)C,463.11,7,"[1, 6, 8]",3,True,CHO,ester
5369,"1,4-dimethyl-2,6,7-trioxabicyclo[2.2.2]octane",CC12COC(OC1)(OC2)C,463.11,7,"[1, 6, 8]",3,True,CHO,ester
5370,"bicyclo[2.2.1]hepta-2,5-dien-7-ol",C1=CC2C=CC1C2O,463.34,7,"[1, 6, 8]",3,True,CHO,alkene
5371,N-butylpropanamide,CCCCNC(=O)CC,463.8,7,"[1, 6, 7, 8]",4,True,CHON,amide
5372,N-methylhexanamide,CCCCCC(=O)NC,463.8,7,"[1, 6, 7, 8]",4,True,CHON,amide
5373,N-propylbutanamide,CCCC(=O)NCCC,463.8,7,"[1, 6, 7, 8]",4,True,CHON,amide
5374,N-ethylpentanamide,CCCCC(=O)NCC,463.8,7,"[1, 6, 7, 8]",4,True,CHON,amide
5375,5-(ethylamino)pentan-2-one,CCNCCCC(=O)C,463.8,7,"[1, 6, 7, 8]",4,True,CHON,ketone
5376,bicyclo[2.2.1]hept-2-en-7-ol,C1CC2C=CC1C2O,464.18,7,"[1, 6, 8]",3,True,CHO,alkene
5377,bicyclo[2.2.1]hept-5-en-2-ol,C1C2CC(C1C=C2)O,464.18,7,"[1, 6, 8]",3,True,CHO,alkene
5378,5-hydroperoxy-5-methylhex-1-en-3-yne,CC(C)(C#CC=C)OO,464.52,7,"[1, 6, 8]",3,True,CHO,alkene
5379,ethyl N-tert-butylcarbamate,CCOC(=O)NC(C)(C)C,464.92,7,"[1, 6, 7, 8]",4,True,CHON,ester
5380,dicyclopropylmethanol,C1CC1C(C2CC2)O,464.98,7,"[1, 6, 8]",3,True,CHO,alcohol
5381,bicyclo[2.2.1]heptan-7-ol,C1CC2CCC1C2O,465.02,7,"[1, 6, 8]",3,True,CHO,alcohol
5382,"5-methylhexane-2,4-dione",CC(C)C(=O)CC(=O)C,467.06,7,"[1, 6, 8]",3,True,CHO,ketone
5383,1-ethylcyclopentan-1-ol,CCC1(CCCC1)O,467.46,7,"[1, 6, 8]",3,True,CHO,alcohol
5384,(E)-hept-3-en-1-ol,CCC/C=C/CCO,467.5,7,"[1, 6, 8]",3,True,CHO,alkene
5385,"4,4-dimethylpent-2-ynenitrile",CC(C)(C)C#CC#N,467.61,7,"[1, 6, 7]",3,True,CHN,alkyne
5386,3-ethyl-3-methyloxolan-2-one,CCC1(CCOC1=O)C,467.65,7,"[1, 6, 8]",3,True,CHO,ester
5387,ethyl N-(2-methylpropyl)carbamate,CCOC(=O)NCC(C)C,467.71,7,"[1, 6, 7, 8]",4,True,CHON,ester
5388,ethyl 3-(methylamino)butanoate,CCOC(=O)CC(C)NC,467.71,7,"[1, 6, 7, 8]",4,True,CHON,ester
5389,butyl N-ethylcarbamate,CCCCOC(=O)NCC,468.15,7,"[1, 6, 7, 8]",4,True,CHON,ester
5390,"7-methoxy-3,4,5,6-tetrahydro-2H-azepine",COC1=NCCCCC1,468.51,7,"[1, 6, 7, 8]",4,True,CHON,ester
5391,"N,N-di(propan-2-yl)formamide",CC(C)N(C=O)C(C)C,468.6,7,"[1, 6, 7, 8]",4,True,CHON,amide
5392,"methyl 2,2-dimethyl-3-oxobutanoate",CC(=O)C(C)(C)C(=O)OC,468.62,7,"[1, 6, 8]",3,True,CHO,ester
5393,ethyl (E)-3-ethoxyprop-2-enoate,CCO/C=C/C(=O)OCC,468.65,7,"[1, 6, 8]",3,True,CHO,ester
5394,ethyl 2-formylcyclopropane-1-carboxylate,CCOC(=O)C1CC1C=O,468.71,7,"[1, 6, 8]",3,True,CHO,ester
5395,"ethyl N-[(1E)-buta-1,3-dienyl]carbamate",CCOC(=O)N/C=C/C=C,468.99,7,"[1, 6, 7, 8]",4,True,CHON,ester
5396,1-morpholin-4-ylprop-2-en-1-one,C=CC(=O)N1CCOCC1,469.65,7,"[1, 6, 7, 8]",4,True,CHON,ester
5397,"hepta-2,4,6-triynenitrile",C#CC#CC#CC#N,469.96,7,"[1, 6, 7]",3,True,CHN,alkyne
5398,N-propan-2-ylcyclopropanecarboxamide,CC(C)NC(=O)C1CC1,470.1,7,"[1, 6, 7, 8]",4,True,CHON,amide
5399,N-acetyl-N-propan-2-ylacetamide,CC(C)N(C(=O)C)C(=O)C,470.15,7,"[1, 6, 7, 8]",4,True,CHON,amide
5400,3-(diethylamino)propanenitrile,CCN(CC)CCC#N,470.15,7,"[1, 6, 7]",3,True,CHN,amine
5401,"dimethyl cyclopropane-1,1-dicarboxylate",COC(=O)C1(CC1)C(=O)OC,470.15,7,"[1, 6, 8]",3,True,CHO,ester
5402,N-propylcyclopropanecarboxamide,CCCNC(=O)C1CC1,470.54,7,"[1, 6, 7, 8]",4,True,CHON,amide
5403,cyclohex-3-en-1-ylmethanol,C1CC(CC=C1)CO,470.65,7,"[1, 6, 8]",3,True,CHO,alkene
5404,2-methylidenecyclohexan-1-ol,C=C1CCCCC1O,470.65,7,"[1, 6, 8]",3,True,CHO,alkene
5405,methyl 5-oxohexanoate,CC(=O)CCCC(=O)OC,471.85,7,"[1, 6, 8]",3,True,CHO,ester
5406,butyl 2-oxopropanoate,CCCCOC(=O)C(=O)C,471.85,7,"[1, 6, 8]",3,True,CHO,ester
5407,"N,N'-dimethyl-N'-[2-(methylamino)ethyl]ethane-1,2-diamine",CNCCN(C)CCNC,472.54,7,"[1, 6, 7]",3,True,CHN,amine
5408,N-[2-(dimethylamino)ethyl]prop-2-enamide,CN(C)CCNC(=O)C=C,472.92,7,"[1, 6, 7, 8]",4,True,CHON,amide
5409,"dimethyl 2,2-dimethylpropanedioate",CC(C)(C(=O)OC)C(=O)OC,472.97,7,"[1, 6, 8]",3,True,CHO,ester
5410,1-(1-methylpyrrol-2-yl)ethanone,CC(=O)C1=CC=CN1C,473.15,7,"[1, 6, 7, 8]",4,True,CHON,aromatic
5411,"2,4-dimethoxypyridine",COC1=CC(=NC=C1)OC,473.65,7,"[1, 6, 7, 8]",4,True,CHON,ester
5412,4-hydroperoxyheptane,CCCC(CCC)OO,473.92,7,"[1, 6, 8]",3,True,CHO,ester
5413,3-hydroperoxyheptane,CCCCC(CC)OO,473.92,7,"[1, 6, 8]",3,True,CHO,ester
5414,2-hydroperoxyheptane,CCCCCC(C)OO,473.92,7,"[1, 6, 8]",3,True,CHO,ester
5415,3-(2-methylpropoxy)propan-1-ol,CC(C)COCCCO,473.92,7,"[1, 6, 8]",3,True,CHO,ester
5416,3-ethoxycyclopent-2-en-1-one,CCOC1=CC(=O)CC1,474.09,7,"[1, 6, 8]",3,True,CHO,ester
5417,3-methylcyclohex-3-en-1-one,CC1=CCCC(=O)C1,474.15,7,"[1, 6, 8]",3,True,CHO,alkene
5418,"2,2,5-trimethylfuran-3-one",CC1=CC(=O)C(O1)(C)C,474.19,7,"[1, 6, 8]",3,True,CHO,ester
5419,"2,2,5-trimethyl-1,3-dioxane-4,6-dione",CC1C(=O)OC(OC1=O)(C)C,474.24,7,"[1, 6, 8]",3,True,CHO,ester
5420,1-hydroperoxyheptane,CCCCCCCOO,474.36,7,"[1, 6, 8]",3,True,CHO,ester
5421,3-butoxypropan-1-ol,CCCCOCCCO,474.36,7,"[1, 6, 8]",3,True,CHO,ester
5422,2-(dimethylamino)cyclopentan-1-ol,CN(C)C1CCCC1O,474.99,7,"[1, 6, 7, 8]",4,True,CHON,alcohol
5423,N-acetyl-N-propylacetamide,CCCN(C(=O)C)C(=O)C,475.15,7,"[1, 6, 7, 8]",4,True,CHON,amide
5424,4-[nitroso(prop-2-enyl)amino]butanoic acid,C=CCN(CCCC(=O)O)N=O,475.15,7,"[1, 6, 7, 8]",4,True,CHON,alkene
5425,(1-ethylpyrrolidin-2-yl)methanol,CCN1CCCC1CO,475.39,7,"[1, 6, 7, 8]",4,True,CHON,alcohol
5426,2-(1-methylpyrrolidin-2-yl)ethanol,CN1CCCC1CCO,475.39,7,"[1, 6, 7, 8]",4,True,CHON,alcohol
5427,3-methylcyclohex-2-en-1-ol,CC1=CC(CCC1)O,475.63,7,"[1, 6, 8]",3,True,CHO,alkene
5428,methyl 3-acetyloxybutanoate,CC(CC(=O)OC)OC(=O)C,475.76,7,"[1, 6, 8]",3,True,CHO,ester
5429,propanoyloxymethyl propanoate,CCC(=O)OCOC(=O)CC,476.2,7,"[1, 6, 8]",3,True,CHO,ester
5430,"3-butyl-1,1-dimethylurea",CCCCNC(=O)N(C)C,476.24,7,"[1, 6, 7, 8]",4,True,CHON,amide
5431,dimethyl (E)-2-methylbut-2-enedioate,C/C(=C\C(=O)OC)/C(=O)OC,476.65,7,"[1, 6, 8]",3,True,CHO,ester
5432,"3,3-diethoxypropan-1-amine",CCOC(CCN)OCC,476.69,7,"[1, 6, 7, 8]",4,True,CHON,ester
5433,"3-acetylpentane-2,4-dione",CC(=O)C(C(=O)C)C(=O)C,476.7,7,"[1, 6, 8]",3,True,CHO,ketone
5434,"3,3-dimethylcyclobutane-1-carboxylic acid",CC1(CC(C1)C(=O)O)C,477.15,7,"[1, 6, 8]",3,True,CHO,alcohol
5435,N-cyclopropylcyclopropanecarboxamide,C1CC1C(=O)NC2CC2,477.28,7,"[1, 6, 7, 8]",4,True,CHON,amide
5436,methyl 2-morpholin-4-ylacetate,COC(=O)CN1CCOCC1,477.32,7,"[1, 6, 7, 8]",4,True,CHON,ester
5437,3-methylpent-1-yn-3-yl carbamate,CCC(C)(C#C)OC(=O)N,477.4,7,"[1, 6, 7, 8]",4,True,CHON,ester
5438,methyl 5-methylfuran-2-carboxylate,CC1=CC=C(O1)C(=O)OC,478.15,7,"[1, 6, 8]",3,True,CHO,ester
5439,2-(3-methylbutylamino)ethanol,CC(C)CCNCCO,478.15,7,"[1, 6, 7, 8]",4,True,CHON,alcohol
5440,(E)-2-methylhex-2-enoic acid,CCC/C=C(\C)/C(=O)O,478.15,7,"[1, 6, 8]",3,True,CHO,alkene
5441,3-acetyl-3-methyloxolan-2-one,CC(=O)C1(CCOC1=O)C,478.83,7,"[1, 6, 8]",3,True,CHO,ester
5442,2-methoxy-3-methylcyclopent-2-en-1-one,CC1=C(C(=O)CC1)OC,479.07,7,"[1, 6, 8]",3,True,CHO,ester
5443,2-piperidin-1-ylacetonitrile,C1CCN(CC1)CC#N,479.15,7,"[1, 6, 7]",3,True,CHN,amine
5444,1-ethylpiperidin-4-ol,CCN1CCC(CC1)O,479.66,7,"[1, 6, 7, 8]",4,True,CHON,alcohol
5445,(1-methylpiperidin-2-yl)methanol,CN1CCCCC1CO,479.66,7,"[1, 6, 7, 8]",4,True,CHON,alcohol
5446,[(E)-3-acetyloxyprop-2-enyl] acetate,CC(=O)OC/C=C/OC(=O)C,480.36,7,"[1, 6, 8]",3,True,CHO,ester
5447,cyclohex-2-ene-1-carbonitrile,C1CC=CC(C1)C#N,480.55,7,"[1, 6, 7]",3,True,CHN,alkene
5448,methyl 2-[methyl(prop-2-enoyl)amino]acetate,CN(CC(=O)OC)C(=O)C=C,480.97,7,"[1, 6, 7, 8]",4,True,CHON,ester
5449,"3,4-diazatricyclo[4.2.1.02,5]nona-3,7-diene",C1C2C=CC1C3C2N=N3,481.03,7,"[1, 6, 7]",3,True,CHN,alkene
5450,"N,N-dipropylformamide",CCCN(CCC)C=O,481.15,7,"[1, 6, 7, 8]",4,True,CHON,amide
5451,2-isocyanatoethyl 2-methylprop-2-enoate,CC(=C)C(=O)OCCN=C=O,481.21,7,"[1, 6, 7, 8]",4,True,CHON,ester
5452,1-azabicyclo[2.2.2]octan-3-ol,C1CN2CCC1C(C2)O,482.13,7,"[1, 6, 7, 8]",4,True,CHON,alcohol
5453,2-(2-methoxyethoxy)ethyl acetate,CC(=O)OCCOCCOC,482.25,7,"[1, 6, 8]",3,True,CHO,ester
5454,ethyl 2-oxooxolane-3-carboxylate,CCOC(=O)C1CCOC1=O,482.94,7,"[1, 6, 8]",3,True,CHO,ester
5455,4-methylhexanoic acid,CCC(C)CCC(=O)O,485.15,7,"[1, 6, 8]",3,True,CHO,alcohol
5456,4-oxopentyl acetate,CC(=O)CCCOC(=O)C,485.15,7,"[1, 6, 8]",3,True,CHO,ester
5457,N-methoxycyclohexanimine,CON=C1CCCCC1,485.56,7,"[1, 6, 7, 8]",4,True,CHON,ester
5458,3-methylhexanoic acid,CCCC(C)CC(=O)O,485.65,7,"[1, 6, 8]",3,True,CHO,alcohol
5459,"2,2-dimethylpentane-1,3-diol",CCC(C(C)(C)CO)O,485.65,7,"[1, 6, 8]",3,True,CHO,alcohol
5460,2-(cyclopenten-1-yl)acetonitrile,C1CC=C(C1)CC#N,485.93,7,"[1, 6, 7]",3,True,CHN,alkene
5461,methyl piperidine-4-carboxylate,COC(=O)C1CCNCC1,486.08,7,"[1, 6, 7, 8]",4,True,CHON,ester
5462,butyl 2-isocyanatoacetate,CCCCOC(=O)CN=C=O,486.15,7,"[1, 6, 7, 8]",4,True,CHON,ester
5463,"2,5-dimethoxyoxolane-3-carbaldehyde",COC1CC(C(O1)OC)C=O,486.15,7,"[1, 6, 8]",3,True,CHO,ester
5464,N-methyl-N-(2-methyl-4-oxopentan-2-yl)nitrous amide,CC(=O)CC(C)(C)N(C)N=O,486.24,7,"[1, 6, 7, 8]",4,True,CHON,ketone
5465,1-azabicyclo[2.2.2]octan-4-ol,C1CN2CCC1(CC2)O,487.04,7,"[1, 6, 7, 8]",4,True,CHON,alcohol
5466,ethyl 4-isocyanatobutanoate,CCOC(=O)CCCN=C=O,487.15,7,"[1, 6, 7, 8]",4,True,CHON,ester
5467,3-methylpentan-3-yl carbamate,CCC(C)(CC)OC(=O)N,487.28,7,"[1, 6, 7, 8]",4,True,CHON,ester
5468,2-(pentylamino)ethanol,CCCCCNCCO,488.15,7,"[1, 6, 7, 8]",4,True,CHON,alcohol
5469,3-pyrrol-1-ylpropanenitrile,C1=CN(C=C1)CCC#N,488.28,7,"[1, 6, 7]",3,True,CHN,aromatic
5470,2-cyclopentylideneacetonitrile,C1CCC(=CC#N)C1,488.43,7,"[1, 6, 7]",3,True,CHN,alkene
5471,"(1-methyl-3,6-dihydro-2H-pyridin-4-yl)methanol",CN1CCC(=CC1)CO,488.47,7,"[1, 6, 7, 8]",4,True,CHON,alkene
5472,1-propan-2-ylpyrrolidin-2-one,CC(C)N1CCCC1=O,489.15,7,"[1, 6, 7, 8]",4,True,CHON,amide
5473,4-methoxycyclohexan-1-ol,COC1CCC(CC1)O,489.24,7,"[1, 6, 8]",3,True,CHO,ester
5474,N-butyl-N-(2-oxopropyl)nitrous amide,CCCCN(CC(=O)C)N=O,489.47,7,"[1, 6, 7, 8]",4,True,CHON,ketone
5475,1-methylcyclopentane-1-carboxylic acid,CC1(CCCC1)C(=O)O,489.65,7,"[1, 6, 8]",3,True,CHO,alcohol
5476,3-pyrrolidin-1-ylpropanenitrile,C1CCN(C1)CCC#N,489.96,7,"[1, 6, 7]",3,True,CHN,amine
5477,5-methylhex-4-enoic acid,CC(=CCCC(=O)O)C,490.15,7,"[1, 6, 8]",3,True,CHO,alkene
5478,cyclohexene-1-carbonitrile,C1CCC(=CC1)C#N,490.2,7,"[1, 6, 7]",3,True,CHN,alkene
5479,"1,6-dioxaspiro[4.4]nonane-2,7-dione",C1CC2(CCC(=O)O2)OC1=O,490.32,7,"[1, 6, 8]",3,True,CHO,ester
5480,hexyl carbamate,CCCCCCOC(=O)N,490.51,7,"[1, 6, 7, 8]",4,True,CHON,ester
5481,6-ethylpyridin-2-amine,CCC1=NC(=CC=C1)N,491.15,7,"[1, 6, 7]",3,True,CHN,aromatic
5482,1-morpholin-4-ylpropan-2-amine,CC(CN1CCOCC1)N,491.19,7,"[1, 6, 7, 8]",4,True,CHON,ester
5483,"1,4-dioxan-2-ylmethyl acetate",CC(=O)OCC1COCCO1,491.43,7,"[1, 6, 8]",3,True,CHO,ester
5484,"dimethyl cyclopropane-1,2-dicarboxylate",COC(=O)C1CC1C(=O)OC,492.15,7,"[1, 6, 8]",3,True,CHO,ester
5485,"1,2-diethylimidazole",CCC1=NC=CN1CC,492.15,7,"[1, 6, 7]",3,True,CHN,aromatic
5486,[butan-2-yl(nitroso)amino]methyl acetate,CCC(C)N(COC(=O)C)N=O,493.38,7,"[1, 6, 7, 8]",4,True,CHON,ester
5487,[2-methylpropyl(nitroso)amino]methyl acetate,CC(C)CN(COC(=O)C)N=O,493.38,7,"[1, 6, 7, 8]",4,True,CHON,ester
5488,2-(2-prop-2-enoxyethoxy)ethanol,C=CCOCCOCCO,493.46,7,"[1, 6, 8]",3,True,CHO,ester
5489,2-(2-methylbutan-2-ylperoxy)ethanol,CCC(C)(C)OOCCO,493.55,7,"[1, 6, 8]",3,True,CHO,alcohol
5490,ethyl N-butyl-N-nitrosocarbamate,CCCCN(C(=O)OCC)N=O,493.82,7,"[1, 6, 7, 8]",4,True,CHON,ester
5491,[butyl(nitroso)amino]methyl acetate,CCCCN(COC(=O)C)N=O,493.82,7,"[1, 6, 7, 8]",4,True,CHON,ester
5492,propan-2-yl (Z)-3-aminobut-2-enoate,CC(C)OC(=O)/C=C(/C)\N,494.11,7,"[1, 6, 7, 8]",4,True,CHON,ester
5493,3-(oxolan-2-yl)propan-1-ol,C1CC(OC1)CCCO,494.17,7,"[1, 6, 8]",3,True,CHO,ester
5494,N-(3-methylbutyl)acetamide,CC(C)CCNC(=O)C,495.15,7,"[1, 6, 7, 8]",4,True,CHON,amide
5495,hept-6-ynoic acid,C#CCCCCC(=O)O,495.39,7,"[1, 6, 8]",3,True,CHO,alkyne
5496,"3-[(E)-but-2-enoyl]-1,3-oxazolidin-2-one",C/C=C/C(=O)N1CCOC1=O,495.59,7,"[1, 6, 7, 8]",4,True,CHON,ester
5497,"1-(2,3,4,5-tetrahydropyridin-6-yl)ethanone",CC(=O)C1=NCCCC1,495.69,7,"[1, 6, 7, 8]",4,True,CHON,ketone
5498,"2-methoxy-2,6-dimethyl-4-nitrosomorpholine",CC1CN(CC(O1)(C)OC)N=O,495.82,7,"[1, 6, 7, 8]",4,True,CHON,ester
5499,1-(2-methoxypropoxy)propan-2-ol,CC(COCC(C)OC)O,495.9,7,"[1, 6, 8]",3,True,CHO,ester
5500,1-(1-methoxypropan-2-yloxy)propan-2-ol,CC(COC(C)COC)O,495.9,7,"[1, 6, 8]",3,True,CHO,ester
5501,(E)-hept-5-enoic acid,C/C=C/CCCC(=O)O,496.15,7,"[1, 6, 8]",3,True,CHO,alkene
5502,2-methylpropyl 2-cyanoacetate,CC(C)COC(=O)CC#N,496.2,7,"[1, 6, 7, 8]",4,True,CHON,ester
5503,"1,3-diethoxypropan-2-ol",CCOCC(COCC)O,496.34,7,"[1, 6, 8]",3,True,CHO,ester
5504,2-(2-propan-2-yloxyethoxy)ethanol,CC(C)OCCOCCO,496.34,7,"[1, 6, 8]",3,True,CHO,ester
5505,"3,3-diethoxypropan-1-ol",CCOC(CCO)OCC,496.34,7,"[1, 6, 8]",3,True,CHO,ester
5506,3-[2-(dimethylamino)ethoxy]propanenitrile,CN(C)CCOCCC#N,496.7,7,"[1, 6, 7, 8]",4,True,CHON,ester
5507,3-(3-methoxypropoxy)propan-1-ol,COCCCOCCCO,496.78,7,"[1, 6, 8]",3,True,CHO,ester
5508,"1,4-dioxa-8-azaspiro[4.5]decane",C1CNCCC12OCCO2,497.68,7,"[1, 6, 7, 8]",4,True,CHON,ester
5509,2-azabicyclo[2.2.2]octan-3-one,C1CC2CCC1C(=O)N2,498.15,7,"[1, 6, 7, 8]",4,True,CHON,amide
5510,7-azabicyclo[4.2.0]octan-8-one,C1CCC2C(C1)C(=O)N2,498.15,7,"[1, 6, 7, 8]",4,True,CHON,amide
5511,"3,3-dimethylpent-4-enoic acid",CC(C)(CC(=O)O)C=C,498.72,7,"[1, 6, 8]",3,True,CHO,alkene
5512,"2,2-dimethylpent-4-enoic acid",CC(C)(CC=C)C(=O)O,498.72,7,"[1, 6, 8]",3,True,CHO,alkene
5513,(E)-5-methylhex-2-enoic acid,CC(C)C/C=C/C(=O)O,499.65,7,"[1, 6, 8]",3,True,CHO,alkene