,Name,SMILES,Tb,C Atom,Atom,Count Unique Atom,Pass Screen,Atom2,Func. Group
10807,"6-ethyl-1,2,3,4-tetrahydronaphthalene",CCC1=CC2=C(CCCC2)C=C1,517.15,12,"[1, 6]",2,True,CH,aromatic
10808,N-methylundecan-1-amine,CCCCCCCCCCCNC,517.15,12,"[1, 6, 7]",3,True,CHN,amine
10809,"tricyclo[5.4.1.04,12]dodeca-1(11),2,5,7,9-pentaene",C1=CC=C2C=CC3C2C(=C1)C=C3,517.62,12,"[1, 6]",2,True,CH,alkene
10810,"1,1-dimethoxy-3,7-dimethyloctane",CC(C)CCCC(C)CC(OC)OC,517.68,12,"[1, 6, 8]",3,True,CHO,ester
10811,"5,6,7,8-tetrahydronaphthalen-1-yl N-methylcarbamate",CNC(=O)OC1=CC=CC2=C1CCCC2,518.15,12,"[1, 6, 7, 8]",4,True,CHON,ester
10812,spiro[5.6]dodecane,C1CCCC2(CC1)CCCCC2,518.17,12,"[1, 6]",2,True,CH,alkane
10813,"1,1-dimethoxydecane",CCCCCCCCCC(OC)OC,518.56,12,"[1, 6, 8]",3,True,CHO,ester
10814,3-hydroxy-2-octyl-2H-furan-5-one,CCCCCCCCC1C(=CC(=O)O1)O,518.65,12,"[1, 6, 8]",3,True,CHO,ester
10815,"2,5,7,7-tetramethyloctanal",CC(CCC(C)C=O)CC(C)(C)C,518.71,12,"[1, 6, 8]",3,True,CHO,aldehyde
10816,2-methylideneundecanal,CCCCCCCCCC(=C)C=O,519.38,12,"[1, 6, 8]",3,True,CHO,alkene
10817,dodec-11-enal,C=CCCCCCCCCCC=O,519.5,12,"[1, 6, 8]",3,True,CHO,alkene
10818,3-methylbutyl cyclohexanecarboxylate,CC(C)CCOC(=O)C1CCCCC1,520.15,12,"[1, 6, 8]",3,True,CHO,ester
10819,2-ethyl-2-phenylbutanenitrile,CCC(CC)(C#N)C1=CC=CC=C1,521.15,12,"[1, 6, 7]",3,True,CHN,aromatic
10820,3-methyl-1-(2-methylphenyl)butan-1-one,CC1=CC=CC=C1C(=O)CC(C)C,521.15,12,"[1, 6, 8]",3,True,CHO,aromatic
10821,"(1Z,3Z,5Z,9Z)-cyclododeca-1,3,5,9-tetraen-7,11-diyne",C\1=C\C=C/C#C/C=C\C#C\C=C1,521.56,12,"[1, 6]",2,True,CH,alkene
10822,"1,3,5-tri(propan-2-yl)-1,3,5-triazinane",CC(C)N1CN(CN(C1)C(C)C)C(C)C,521.57,12,"[1, 6, 7]",3,True,CHN,amine
10823,1-cyclohexylcyclohexene,C1CCC(CC1)C2=CCCCC2,522.07,12,"[1, 6]",2,True,CH,alkene
10824,"1,2,3,3a,4,5-hexahydroacenaphthylene",C1CC2CCC3=CC=CC(=C23)C1,522.15,12,"[1, 6]",2,True,CH,aromatic
10825,(2-methyl-6-methylideneoct-7-en-2-yl) acetate,CC(=O)OC(C)(C)CCCC(=C)C=C,522.39,12,"[1, 6, 8]",3,True,CHO,ester
10826,methyl undec-10-ynoate,COC(=O)CCCCCCCCC#C,522.5,12,"[1, 6, 8]",3,True,CHO,ester
10827,1-(2-methyl-5-propan-2-ylphenyl)ethanone,CC1=C(C=C(C=C1)C(C)C)C(=O)C,522.65,12,"[1, 6, 8]",3,True,CHO,aromatic
10828,"(E)-1,1-diethoxyoct-2-ene",CCCCC/C=C/C(OCC)OCC,522.72,12,"[1, 6, 8]",3,True,CHO,ester
10829,"(Z)-1,1-dimethoxydec-4-ene",CCCCC/C=C\CCC(OC)OC,522.72,12,"[1, 6, 8]",3,True,CHO,ester
10830,"1,4-bis(2-methylprop-1-enyl)piperazine",CC(=CN1CCN(CC1)C=C(C)C)C,522.8,12,"[1, 6, 7]",3,True,CHN,alkene
10831,"(1Z,5Z,9Z)-cyclododeca-1,5,9-trien-3,7,11-triyne",C\1=C\C#C/C=C\C#C/C=C\C#C1,522.86,12,"[1, 6]",2,True,CH,alkene
10832,"1,3,5-tripropyl-1,3,5-triazinane",CCCN1CN(CN(C1)CCC)CCC,522.89,12,"[1, 6, 7]",3,True,CHN,amine
10833,2-pentyl-1H-benzimidazole,CCCCCC1=NC2=CC=CC=C2N1,523.15,12,"[1, 6, 7]",3,True,CHN,aromatic
10834,cyclododecene,C1CCCCC/C=C/CCCC1,523.16,12,"[1, 6]",2,True,CH,alkene
10835,"11-methyltricyclo[5.3.1.04,11]undeca-1(10),2,4,6,8-pentaene",CC12C3=CC=C1C=CC2=CC=C3,523.24,12,"[1, 6]",2,True,CH,alkene
10836,"11-methylidenebicyclo[4.4.1]undeca-1,3,5,7,9-pentaene",C=C1C2=CC=CC=C1C=CC=C2,523.25,12,"[1, 6]",2,True,CH,alkene
10837,4-methyl-1-phenylpentan-2-one,CC(C)CC(=O)CC1=CC=CC=C1,523.65,12,"[1, 6, 8]",3,True,CHO,aromatic
10838,N-methylundecan-2-amine,CCCCCCCCCC(C)NC,523.89,12,"[1, 6, 7]",3,True,CHN,amine
10839,"N'-[2-[2-(dimethylamino)ethyl-methylamino]ethyl]-N,N,N'-trimethylethane-1,2-diamine",CN(C)CCN(C)CCN(C)CCN(C)C,523.92,12,"[1, 6, 7]",3,True,CHN,amine
10840,"N',N'-bis[2-(dimethylamino)ethyl]-N,N-dimethylethane-1,2-diamine",CN(C)CCN(CCN(C)C)CCN(C)C,523.92,12,"[1, 6, 7]",3,True,CHN,amine
10841,"1,2,3,6,7,8-hexahydro-as-indacene",C1CC2=C(C1)C3=C(CCC3)C=C2,524.15,12,"[1, 6]",2,True,CH,aromatic
10842,cyclododecyne,C1CCCCCC#CCCCC1,524.46,12,"[1, 6]",2,True,CH,alkyne
10843,"2,6-dimethylocta-1,7-dien-3-yl acetate",CC(CCC(C(=C)C)OC(=O)C)C=C,524.74,12,"[1, 6, 8]",3,True,CHO,ester
10844,"5,6-dimethyl-1,2,3,4-tetrahydronaphthalene",CC1=C(C2=C(CCCC2)C=C1)C,525.15,12,"[1, 6]",2,True,CH,aromatic
10845,"6,7-dimethyl-1,2,3,4-tetrahydronaphthalene",CC1=CC2=C(CCCC2)C=C1C,525.15,12,"[1, 6]",2,True,CH,aromatic
10846,"cyclododeca-1,5,9-triyne",C1CC#CCCC#CCCC#C1,525.38,12,"[1, 6]",2,True,CH,alkyne
10847,"3,7-dimethyloct-1-en-3-yl acetate",CC(C)CCCC(C)(C=C)OC(=O)C,525.39,12,"[1, 6, 8]",3,True,CHO,ester
10848,"prop-2-enyl 3,5,5-trimethylhexanoate",CC(CC(=O)OCC=C)CC(C)(C)C,525.39,12,"[1, 6, 8]",3,True,CHO,ester
10849,"prop-2-enyl 5,5-dimethylheptanoate",CCC(C)(C)CCCC(=O)OCC=C,525.83,12,"[1, 6, 8]",3,True,CHO,ester
10850,"2,5-dimethyl-5-phenyl-1,3-dioxane",CC1OCC(CO1)(C)C2=CC=CC=C2,526.15,12,"[1, 6, 8]",3,True,CHO,ester
10851,"1,4-bis(ethenoxymethyl)cyclohexane",C=COCC1CCC(CC1)COC=C,526.15,12,"[1, 6, 8]",3,True,CHO,ester
10852,"5,7-dimethyl-1,2,3,4-tetrahydronaphthalene",CC1=CC(=C2CCCCC2=C1)C,526.15,12,"[1, 6]",2,True,CH,aromatic
10853,"1,3-dipropoxybenzene",CCCOC1=CC(=CC=C1)OCCC,526.15,12,"[1, 6, 8]",3,True,CHO,ester
10854,"(2E)-1,1-dimethoxy-3,7-dimethylocta-2,6-diene",CC(=CCC/C(=C/C(OC)OC)/C)C,526.64,12,"[1, 6, 8]",3,True,CHO,ester
10855,"8a-methoxy-4a-methyl-1,2,3,4,5,6-hexahydronaphthalene",CC12CCCCC1(C=CCC2)OC,526.78,12,"[1, 6, 8]",3,True,CHO,ester
10856,(Z)-2-butyloct-2-enal,CCCCC/C=C(/CCCC)\C=O,526.86,12,"[1, 6, 8]",3,True,CHO,alkene
10857,(E)-dodec-2-enal,CCCCCCCCC/C=C/C=O,526.98,12,"[1, 6, 8]",3,True,CHO,alkene
10858,dodec-3-enal,CCCCCCCCC=CCC=O,526.98,12,"[1, 6, 8]",3,True,CHO,alkene
10859,(Z)-dodec-5-enal,CCCCCC/C=C\CCCC=O,526.98,12,"[1, 6, 8]",3,True,CHO,alkene
10860,3-phenylaniline,C1=CC=C(C=C1)C2=CC(=CC=C2)N,527.15,12,"[1, 6, 7]",3,True,CHN,aromatic
10861,"5,8-dimethyl-1,2,3,4-tetrahydronaphthalene",CC1=C2CCCCC2=C(C=C1)C,527.15,12,"[1, 6]",2,True,CH,aromatic
10862,"1,1-diethoxyoct-2-yne",CCCCCC#CC(OCC)OCC,527.56,12,"[1, 6, 8]",3,True,CHO,ester