,Name,SMILES,Tb,C Atom,Atom,Count Unique Atom,Pass Screen,Atom2,Func. Group
4638,"3-methylpentane-2,3-diol",CCC(C)(C(C)O)O,517.57,6,"[1, 6, 8]",3,True,CHO,alcohol
4639,"2,2-dimethylbutane-1,4-diol",CC(C)(CCO)CO,518.01,6,"[1, 6, 8]",3,True,CHO,alcohol
4640,"3-methylpentane-1,3-diol",CCC(C)(CCO)O,518.01,6,"[1, 6, 8]",3,True,CHO,alcohol
4641,"1,3,5,7-tetrahydro-[1,3]oxazolo[3,4-c][1,3]oxazol-7a-ylmethanol",C1C2(COCN2CO1)CO,518.06,6,"[1, 6, 7, 8]",4,True,CHON,ester
4642,"5-ethyl-5-methyl-1,3-oxazolidine-2,4-dione",CCC1(C(=O)NC(=O)O1)C,518.45,6,"[1, 6, 7, 8]",4,True,CHON,ester
4643,"1,4,7-triazonane",C1CNCCNCCN1,519.56,6,"[1, 6, 7]",3,True,CHN,amine
4644,2-methoxyethyl 2-cyanoacetate,COCCOC(=O)CC#N,519.6,6,"[1, 6, 7, 8]",4,True,CHON,ester
4645,4-amino-4-methoxypentan-2-ol,CC(CC(C)(N)OC)O,520.34,6,"[1, 6, 7, 8]",4,True,CHON,ester
4646,"2-propan-2-ylpropane-1,3-diol",CC(C)C(CO)CO,520.36,6,"[1, 6, 8]",3,True,CHO,alcohol
4647,"2-ethylbutane-1,3-diol",CCC(CO)C(C)O,520.36,6,"[1, 6, 8]",3,True,CHO,alcohol
4648,"2-propylpropane-1,3-diol",CCCC(CO)CO,520.8,6,"[1, 6, 8]",3,True,CHO,alcohol
4649,"hexane-1,4-diol",CCC(CCCO)O,520.8,6,"[1, 6, 8]",3,True,CHO,alcohol
4650,"hexane-1,3-diol",CCCC(CCO)O,520.8,6,"[1, 6, 8]",3,True,CHO,alcohol
4651,"3-methylpentane-1,5-diol",CC(CCO)CCO,521.55,6,"[1, 6, 8]",3,True,CHO,alcohol
4652,4-(2-hydroxyethoxy)-4-oxobut-2-enoic acid,C(COC(=O)C=CC(=O)O)O,521.65,6,"[1, 6, 8]",3,True,CHO,carboxylic_acid
4653,3-methylpiperidin-2-one,CC1CCCNC1=O,522.65,6,"[1, 6, 7, 8]",4,True,CHON,amide
4654,"1,1,1,2-tetramethoxyethane",COCC(OC)(OC)OC,523.15,6,"[1, 6, 8]",3,True,CHO,ester
4655,[1-[methyl(nitroso)amino]-2-oxopropyl] acetate,CC(=O)C(N(C)N=O)OC(=O)C,524.37,6,"[1, 6, 7, 8]",4,True,CHON,ester
4656,"4,6-dimethoxypyrimidin-2-amine",COC1=CC(=NC(=N1)N)OC,525.15,6,"[1, 6, 7, 8]",4,True,CHON,ester
4657,dimethyl 2-aminobutanedioate,COC(=O)CC(C(=O)OC)N,525.41,6,"[1, 6, 7, 8]",4,True,CHON,ester
4658,3-(dimethylamino)propylurea,CN(C)CCCNC(=O)N,525.89,6,"[1, 6, 7, 8]",4,True,CHON,amine
4659,2-hydroxyhexanedial,C(CC=O)CC(C=O)O,525.94,6,"[1, 6, 8]",3,True,CHO,alcohol
4660,2-hydroxy-3-methylcyclopent-2-en-1-one,CC1=C(C(=O)CC1)O,525.95,6,"[1, 6, 8]",3,True,CHO,alkene
4661,3-hydroxy-2-methylcyclopent-2-en-1-one,CC1=C(CCC1=O)O,525.95,6,"[1, 6, 8]",3,True,CHO,alkene
4662,2-[2-(2-aminoethoxy)ethoxy]ethanamine,C(COCCOCCN)N,526.78,6,"[1, 6, 7, 8]",4,True,CHON,ester
4663,"3-methylcyclopentane-1,2-diol",CC1CCC(C1O)O,527.18,6,"[1, 6, 8]",3,True,CHO,alcohol
4664,[2-(hydroxymethyl)cyclobutyl]methanol,C1CC(C1CO)CO,527.58,6,"[1, 6, 8]",3,True,CHO,alcohol
4665,4-methylpyridin-3-amine,CC1=C(C=NC=C1)N,528.15,6,"[1, 6, 7]",3,True,CHN,aromatic
4666,oxane-4-carboxylic acid,C1COCCC1C(=O)O,528.89,6,"[1, 6, 8]",3,True,CHO,carboxylic_acid
4667,methyl 2-[acetyloxymethyl(nitroso)amino]acetate,CC(=O)OCN(CC(=O)OC)N=O,529.16,6,"[1, 6, 7, 8]",4,True,CHON,ester
4668,"hex-3-yne-2,5-diol",CC(C#CC(C)O)O,529.36,6,"[1, 6, 8]",3,True,CHO,alkyne
4669,"hexane-2,3,4-triol",CCC(C(C(C)O)O)O,529.65,6,"[1, 6, 8]",3,True,CHO,alcohol
4670,"3-propyl-1,4-dihydropyrazol-5-one",CCCC1=NNC(=O)C1,531.04,6,"[1, 6, 7, 8]",4,True,CHON,amide
4671,2-propan-2-yl-1H-imidazole,CC(C)C1=NC=CN1,531.15,6,"[1, 6, 7]",3,True,CHN,aromatic
4672,"1-N-(2-aminopropyl)propane-1,2-diamine",CC(CNCC(C)N)N,531.23,6,"[1, 6, 7]",3,True,CHN,amine
4673,piperidine-3-carboxamide,C1CC(CNC1)C(=O)N,531.38,6,"[1, 6, 7, 8]",4,True,CHON,amide
4674,piperidine-2-carboxamide,C1CCNC(C1)C(=O)N,531.38,6,"[1, 6, 7, 8]",4,True,CHON,amide
4675,piperidine-4-carboxamide,C1CNCCC1C(=O)N,531.38,6,"[1, 6, 7, 8]",4,True,CHON,amide
4676,"1-methylcyclopentane-1,2-diol",CC1(CCCC1O)O,532.09,6,"[1, 6, 8]",3,True,CHO,alcohol
4677,"N'-(2-aminoethyl)butane-1,4-diamine",C(CCNCCN)CN,532.11,6,"[1, 6, 7]",3,True,CHN,amine
4678,"2,6,7-trioxabicyclo[2.2.2]octan-4-ylmethanol",C1C2(COC(O1)OC2)CO,532.17,6,"[1, 6, 8]",3,True,CHO,ester
4679,"5,6,12,13-tetraoxa-1,3,8,10-tetrazatricyclo[8.4.0.03,8]tetradecane",C1N2COOCN2CN3N1COOC3,532.94,6,"[1, 6, 7, 8]",4,True,CHON,ester
4680,N-hydroxyhexanamide,CCCCCC(=O)NO,533.1,6,"[1, 6, 7, 8]",4,True,CHON,amide
4681,"cyclohexa-2,5-diene-1,4-diimine",C1=CC(=N)C=CC1=N,533.3,6,"[1, 6, 7]",3,True,CHN,alkene
4682,"cyclohexa-3,5-diene-1,2-diol",C1=CC(C(C=C1)O)O,534.44,6,"[1, 6, 8]",3,True,CHO,alkene
4683,6-aminohexanamide,C(CCC(=O)N)CCN,535.81,6,"[1, 6, 7, 8]",4,True,CHON,amide
4684,2-methyl-4-oxopentanoic acid,CC(CC(=O)C)C(=O)O,535.82,6,"[1, 6, 8]",3,True,CHO,carboxylic_acid
4685,"3-hydroxyhexane-2,5-dione",CC(=O)CC(C(=O)C)O,536.36,6,"[1, 6, 8]",3,True,CHO,alcohol
4686,2-methylpropyl N-(hydroxymethyl)carbamate,CC(C)COC(=O)NCO,537.01,6,"[1, 6, 7, 8]",4,True,CHON,ester
4687,3-prop-2-enoyloxypropanoic acid,C=CC(=O)OCCC(=O)O,537.29,6,"[1, 6, 8]",3,True,CHO,carboxylic_acid
4688,2-(2-hydroxyethylamino)ethyl acetate,CC(=O)OCCNCCO,537.45,6,"[1, 6, 7, 8]",4,True,CHON,ester
4689,methyl 2-hydroxy-2-methyl-3-oxobutanoate,CC(=O)C(C)(C(=O)OC)O,537.92,6,"[1, 6, 8]",3,True,CHO,ester
4690,"hexa-2,4-diyne-1,6-diol",C(C#CC#CCO)O,539.24,6,"[1, 6, 8]",3,True,CHO,alkyne
4691,"(2E,4E)-6-oxohexa-2,4-dienoic acid",C(=C/C=O)\C=C\C(=O)O,539.37,6,"[1, 6, 8]",3,True,CHO,carboxylic_acid
4692,"2-prop-2-enoxypropane-1,3-diol",C=CCOC(CO)CO,539.9,6,"[1, 6, 8]",3,True,CHO,ester
4693,4-ethoxy-4-oxobutanoic acid,CCOC(=O)CCC(=O)O,540.61,6,"[1, 6, 8]",3,True,CHO,carboxylic_acid
4694,5-methoxy-5-oxopentanoic acid,COC(=O)CCCC(=O)O,540.61,6,"[1, 6, 8]",3,True,CHO,carboxylic_acid
4695,5-methylpyrrolidine-2-carboxylic acid,CC1CCC(N1)C(=O)O,541.55,6,"[1, 6, 7, 8]",4,True,CHON,carboxylic_acid
4696,2-(4-aminopiperazin-1-yl)ethanol,C1CN(CCN1CCO)N,542.15,6,"[1, 6, 7, 8]",4,True,CHON,alcohol
4697,2-(2-hydroxypropoxy)propan-1-ol,CC(CO)OCC(C)O,542.78,6,"[1, 6, 8]",3,True,CHO,ester
4698,"2,4,5-trimethyl-1H-imidazole",CC1=C(N=C(N1)C)C,544.15,6,"[1, 6, 7]",3,True,CHN,aromatic
4699,N-(1-acetamidoethyl)acetamide,CC(NC(=O)C)NC(=O)C,544.52,6,"[1, 6, 7, 8]",4,True,CHON,amide
4700,2-acetamido-N-methylpropanamide,CC(C(=O)NC)NC(=O)C,544.52,6,"[1, 6, 7, 8]",4,True,CHON,amide
4701,"1,5,5-trimethylimidazolidine-2,4-dione",CC1(C(=O)NC(=O)N1C)C,544.76,6,"[1, 6, 7, 8]",4,True,CHON,amide
4702,(E)-4-ethoxy-4-oxobut-2-enoic acid,CCOC(=O)/C=C/C(=O)O,544.77,6,"[1, 6, 8]",3,True,CHO,carboxylic_acid
4703,(Z)-4-ethoxy-4-oxobut-2-enoic acid,CCOC(=O)/C=C\C(=O)O,544.77,6,"[1, 6, 8]",3,True,CHO,carboxylic_acid
4704,"N,N'-diethyloxamide",CCNC(=O)C(=O)NCC,544.96,6,"[1, 6, 7, 8]",4,True,CHON,amide
4705,hex-2-enedinitrile,C(CC#N)C=CC#N,545.2,6,"[1, 6, 7]",3,True,CHN,alkene
4706,2-piperazin-2-ylethanol,C1CNC(CN1)CCO,545.71,6,"[1, 6, 7, 8]",4,True,CHON,alcohol
4707,2-[2-(2-aminoethoxy)ethoxy]ethanol,C(COCCOCCO)N,546.43,6,"[1, 6, 7, 8]",4,True,CHON,ester
4708,"3-methyloxane-2,6-dione",CC1CCC(=O)OC1=O,546.65,6,"[1, 6, 8]",3,True,CHO,ether
4709,(E)-hex-3-enedinitrile,C(/C=C/CC#N)C#N,547.0,6,"[1, 6, 7]",3,True,CHN,alkene
4710,"1,3,5-trimethyl-1,3,5-triazinane-2,4,6-trione",CN1C(=O)N(C(=O)N(C1=O)C)C,547.2,6,"[1, 6, 7, 8]",4,True,CHON,aromatic
4711,"4-hydroxy-2,5-dimethylfuran-3-one",CC1C(=O)C(=C(O1)C)O,548.23,6,"[1, 6, 8]",3,True,CHO,ester
4712,4-(dimethylamino)-4-oxobutanoic acid,CN(C)C(=O)CCC(=O)O,548.7,6,"[1, 6, 7, 8]",4,True,CHON,carboxylic_acid
4713,3-aminoazepan-2-one,C1CCNC(=O)C(C1)N,549.6,6,"[1, 6, 7, 8]",4,True,CHON,amide
4714,"4-methyloxane-2,6-dione",CC1CC(=O)OC(=O)C1,550.15,6,"[1, 6, 8]",3,True,CHO,ether
4715,diethyl ethanediimidate,CCOC(=N)C(=N)OCC,550.4,6,"[1, 6, 7, 8]",4,True,CHON,ester
4716,N'-hydroxypyridine-2-carboximidamide,C1=CC=NC(=C1)C(=NO)N,550.42,6,"[1, 6, 7, 8]",4,True,CHON,aromatic
4717,piperidine-4-carboxylic acid,C1CNCCC1C(=O)O,550.49,6,"[1, 6, 7, 8]",4,True,CHON,carboxylic_acid
4718,piperidine-3-carboxylic acid,C1CC(CNC1)C(=O)O,550.49,6,"[1, 6, 7, 8]",4,True,CHON,carboxylic_acid
4719,piperidine-2-carboxylic acid,C1CCNC(C1)C(=O)O,550.49,6,"[1, 6, 7, 8]",4,True,CHON,carboxylic_acid
4720,methyl 2-cyano-3-oxobutanoate,CC(=O)C(C#N)C(=O)OC,550.61,6,"[1, 6, 7, 8]",4,True,CHON,ester
4721,"2-amino-3,3-dimethylbutanoic acid",CC(C)(C)C(C(=O)O)N,551.25,6,"[1, 6, 7, 8]",4,True,CHON,carboxylic_acid
4722,3-(2-aminopropylamino)propan-1-ol,CC(CNCCCO)N,551.32,6,"[1, 6, 7, 8]",4,True,CHON,alcohol
4723,3-imidazol-1-ylpropan-1-amine,C1=CN(C=N1)CCCN,552.65,6,"[1, 6, 7]",3,True,CHN,aromatic
4724,"4-methylpiperidine-2,6-dione",CC1CC(=O)NC(=O)C1,553.15,6,"[1, 6, 7, 8]",4,True,CHON,amide
4725,"1-ethylpiperazine-2,3-dione",CCN1CCNC(=O)C1=O,553.46,6,"[1, 6, 7, 8]",4,True,CHON,amide
4726,"bicyclo[3.1.0]hexane-2,3,4-trione",C1C2C1C(=O)C(=O)C2=O,553.82,6,"[1, 6, 8]",3,True,CHO,ketone
4727,2-amino-4-methylpentanoic acid,CC(C)CC(C(=O)O)N,554.04,6,"[1, 6, 7, 8]",4,True,CHON,carboxylic_acid
4728,2-amino-3-methylpentanoic acid,CCC(C)C(C(=O)O)N,554.04,6,"[1, 6, 7, 8]",4,True,CHON,carboxylic_acid
4729,3-amino-4-methylpentanoic acid,CC(C)C(CC(=O)O)N,554.04,6,"[1, 6, 7, 8]",4,True,CHON,carboxylic_acid
4730,2-aminohexanoic acid,CCCCC(C(=O)O)N,554.48,6,"[1, 6, 7, 8]",4,True,CHON,carboxylic_acid
4731,5-aminohexanoic acid,CC(CCCC(=O)O)N,554.48,6,"[1, 6, 7, 8]",4,True,CHON,carboxylic_acid
4732,4-aminohexanoic acid,CCC(CCC(=O)O)N,554.48,6,"[1, 6, 7, 8]",4,True,CHON,carboxylic_acid
4733,6-aminohexanoic acid,C(CCC(=O)O)CCN,554.92,6,"[1, 6, 7, 8]",4,True,CHON,carboxylic_acid
4734,(E)-hex-2-enedinitrile,C(CC#N)/C=C/C#N,555.0,6,"[1, 6, 7]",3,True,CHN,alkene
4735,6-methyl-1H-pyridin-2-one,CC1=CC=CC(=O)N1,555.15,6,"[1, 6, 7, 8]",4,True,CHON,aromatic
4736,"7-oxabicyclo[4.1.0]hept-4-ene-2,3-diol",C1=CC2C(O2)C(C1O)O,555.76,6,"[1, 6, 8]",3,True,CHO,ester
4737,2-(dimethylaminomethylidene)propanedinitrile,CN(C)C=C(C#N)C#N,557.52,6,"[1, 6, 7]",3,True,CHN,alkene
4738,4-[ethyl(nitroso)amino]butanoic acid,CCN(CCCC(=O)O)N=O,558.23,6,"[1, 6, 7, 8]",4,True,CHON,alcohol
4739,"(2,5-dioxopyrrolidin-1-yl) acetate",CC(=O)ON1C(=O)CCC1=O,558.86,6,"[1, 6, 7, 8]",4,True,CHON,amide
4740,2-(2-oxopyrrolidin-1-yl)acetamide,C1CC(=O)N(C1)CC(=O)N,559.22,6,"[1, 6, 7, 8]",4,True,CHON,amide
4741,"1,2,3,6-tetrahydropyridine-5-carboxylic acid",C1CNCC(=C1)C(=O)O,559.3,6,"[1, 6, 7, 8]",4,True,CHON,carboxylic_acid
4742,[4-(hydroxymethyl)piperazin-1-yl]methanol,C1CN(CCN1CO)CO,561.8,6,"[1, 6, 7, 8]",4,True,CHON,alcohol
4743,2-(3-methylbut-2-enyl)guanidine,CC(=CCN=C(N)N)C,562.54,6,"[1, 6, 7]",3,True,CHN,alkene
4744,3-methoxycarbonylbut-3-enoic acid,COC(=O)C(=C)CC(=O)O,563.03,6,"[1, 6, 8]",3,True,CHO,carboxylic_acid
4745,3-oxocyclopentane-1-carboxylic acid,C1CC(=O)CC1C(=O)O,565.49,6,"[1, 6, 8]",3,True,CHO,carboxylic_acid
4746,2-(ethoxymethylidene)propanedinitrile,CCOC=C(C#N)C#N,567.5,6,"[1, 6, 7, 8]",4,True,CHON,ester
4747,1-aminocyclopentane-1-carboxylic acid,C1CCC(C1)(C(=O)O)N,570.44,6,"[1, 6, 7, 8]",4,True,CHON,carboxylic_acid
4748,1-ethyl-1-nitroso-3-(2-oxopropyl)urea,CCN(C(=O)NCC(=O)C)N=O,570.63,6,"[1, 6, 7, 8]",4,True,CHON,amide
4749,2-methyl-5-oxopyrrolidine-2-carbonitrile,CC1(CCC(=O)N1)C#N,570.85,6,"[1, 6, 7, 8]",4,True,CHON,amide
4750,"2-hydroxy-3,3-dimethylbutanoic acid",CC(C)(C)C(C(=O)O)O,570.9,6,"[1, 6, 8]",3,True,CHO,alcohol
4751,1-(2-hydroxyethylamino)butan-2-ol,CCC(CNCCO)O,570.97,6,"[1, 6, 7, 8]",4,True,CHON,alcohol
4752,2-ethyl-2-hydroxybutanoic acid,CCC(CC)(C(=O)O)O,571.34,6,"[1, 6, 8]",3,True,CHO,alcohol
4753,3-(3-hydroxypropylamino)propan-1-ol,C(CNCCCO)CO,571.41,6,"[1, 6, 7, 8]",4,True,CHON,alcohol
4754,ethyl 2-[(2-aminoacetyl)amino]acetate,CCOC(=O)CNC(=O)CN,571.67,6,"[1, 6, 7, 8]",4,True,CHON,ester
4755,"3,4,8,9,12,13-hexaoxa-1,6-diazabicyclo[4.4.4]tetradecane",C1N2COOCN(COO1)COOC2,571.9,6,"[1, 6, 7, 8]",4,True,CHON,ester
4756,1-nitrosopiperidine-2-carboxylic acid,C1CCN(C(C1)C(=O)O)N=O,573.51,6,"[1, 6, 7, 8]",4,True,CHON,alcohol
4757,2-hydroxy-4-methylpentanoic acid,CC(C)CC(C(=O)O)O,573.69,6,"[1, 6, 8]",3,True,CHO,alcohol
4758,methyl 3-hydroxy-2-(hydroxymethyl)-2-methylpropanoate,CC(CO)(CO)C(=O)OC,576.23,6,"[1, 6, 8]",3,True,CHO,ester
4759,(Z)-hex-2-enedinitrile,C(CC#N)/C=C\C#N,577.0,6,"[1, 6, 7]",3,True,CHN,alkene
4760,"1,4-dimethylpiperazine-2,5-dione",CN1CC(=O)N(CC1=O)C,578.15,6,"[1, 6, 7, 8]",4,True,CHON,amide
4761,2-methylprop-1-enyl acetate,CC(=COC(=O)C)C,580.01,6,"[1, 6, 8]",3,True,CHO,ester
4762,"1,3-dimethyl-1,3-diazinane-2,4,6-trione",CN1C(=O)CC(=O)N(C1=O)C,580.9,6,"[1, 6, 7, 8]",4,True,CHON,amide
4763,2-(propan-2-ylideneamino)oxypropanoic acid,CC(C(=O)O)ON=C(C)C,580.93,6,"[1, 6, 7, 8]",4,True,CHON,carboxylic_acid
4764,"4-iminocyclohexa-2,5-dien-1-one",C1=CC(=O)C=CC1=N,582.84,6,"[1, 6, 7, 8]",4,True,CHON,alkene
4765,"3,6-dimethylpiperazine-2,5-dione",CC1C(=O)NC(C(=O)N1)C,584.5,6,"[1, 6, 7, 8]",4,True,CHON,amide
4766,"5-ethyl-5-methylimidazolidine-2,4-dione",CCC1(C(=O)NC(=O)N1)C,585.14,6,"[1, 6, 7, 8]",4,True,CHON,amide
4767,4-acetamidobutanoic acid,CC(=O)NCCCC(=O)O,586.43,6,"[1, 6, 7, 8]",4,True,CHON,carboxylic_acid
4768,2-[bis(2-aminoethyl)amino]ethanol,C(CN(CCN)CCO)N,586.56,6,"[1, 6, 7, 8]",4,True,CHON,alcohol
4769,hexanediamide,C(CCC(=O)N)CC(=O)N,589.68,6,"[1, 6, 7, 8]",4,True,CHON,amide
4770,(E)-2-acetamidobut-2-enoic acid,C/C=C(\C(=O)O)/NC(=O)C,590.47,6,"[1, 6, 7, 8]",4,True,CHON,carboxylic_acid
4771,(Z)-4-(ethylamino)-4-oxobut-2-enoic acid,CCNC(=O)/C=C\C(=O)O,590.59,6,"[1, 6, 7, 8]",4,True,CHON,carboxylic_acid
4772,"propan-2-yl N,N-bis(hydroxymethyl)carbamate",CC(C)OC(=O)N(CO)CO,591.46,6,"[1, 6, 7, 8]",4,True,CHON,ester
4773,"1-(2-hydroxyethyl)pyrrolidine-2,5-dione",C1CC(=O)N(C1=O)CCO,592.82,6,"[1, 6, 7, 8]",4,True,CHON,amide
4774,"4-tert-butyl-1,2,4-triazolidine-3,5-dione",CC(C)(C)N1C(=O)NNC1=O,594.51,6,"[1, 6, 7, 8]",4,True,CHON,aromatic
4775,"[5-(hydroxymethyl)-1,3-dioxan-5-yl]methanol",C1C(COCO1)(CO)CO,594.93,6,"[1, 6, 8]",3,True,CHO,ester
4776,"N,N-bis(2-hydroxypropyl)nitrous amide",CC(CN(CC(C)O)N=O)O,596.2,6,"[1, 6, 7, 8]",4,True,CHON,alcohol
4777,N-(4-hydroxybutyl)-N-(2-hydroxyethyl)nitrous amide,C(CCO)CN(CCO)N=O,597.08,6,"[1, 6, 7, 8]",4,True,CHON,alcohol
4778,methyl 4-[carbamoyl(nitroso)amino]butanoate,COC(=O)CCCN(C(=O)N)N=O,597.34,6,"[1, 6, 7, 8]",4,True,CHON,ester
4779,"4-(2,2-dimethylhydrazinyl)-4-oxobutanoic acid",CN(C)NC(=O)CCC(=O)O,598.87,6,"[1, 6, 7, 8]",4,True,CHON,carboxylic_acid
4780,ethyl N-(2-cyanoacetyl)carbamate,CCOC(=O)NC(=O)CC#N,601.22,6,"[1, 6, 7, 8]",4,True,CHON,ester
4781,ethyl (NE)-N-ethoxycarbonyliminocarbamate,CCOC(=O)/N=N/C(=O)OCC,602.52,6,"[1, 6, 7, 8]",4,True,CHON,ester
4782,2-hydrazinyl-4-methylpentanoic acid,CC(C)CC(C(=O)O)NN,604.21,6,"[1, 6, 7, 8]",4,True,CHON,alcohol
4783,"5,5-dimethyl-2,4-dioxo-1,3-oxazolidine-3-carboxamide",CC1(C(=O)N(C(=O)O1)C(=O)N)C,604.47,6,"[1, 6, 7, 8]",4,True,CHON,ester
4784,6-amino-6-oxohexanoic acid,C(CCC(=O)O)CC(=O)N,608.79,6,"[1, 6, 7, 8]",4,True,CHON,carboxylic_acid
4785,2-cyano-N-methyl-N-(methylcarbamoyl)acetamide,CNC(=O)N(C)C(=O)CC#N,609.31,6,"[1, 6, 7, 8]",4,True,CHON,amide
4786,"3-methylpentane-1,3,5-triol",CC(CCO)(CCO)O,610.19,6,"[1, 6, 8]",3,True,CHO,alcohol
4787,"3-(hydroxymethyl)pentane-2,4-diol",CC(C(CO)C(C)O)O,612.1,6,"[1, 6, 8]",3,True,CHO,alcohol
4788,"hexane-1,2,5-triol",CC(CCC(CO)O)O,612.54,6,"[1, 6, 8]",3,True,CHO,alcohol
4789,"hexane-1,2,3-triol",CCCC(C(CO)O)O,612.54,6,"[1, 6, 8]",3,True,CHO,alcohol
4790,"2-methoxyethyl N,N-bis(hydroxymethyl)carbamate",COCCOC(=O)N(CO)CO,614.32,6,"[1, 6, 7, 8]",4,True,CHON,ester
4791,[acetyl(methylcarbamoyl)amino] N-methylcarbamate,CC(=O)N(C(=O)NC)OC(=O)NC,615.62,6,"[1, 6, 7, 8]",4,True,CHON,amide
4792,"1,5-dimethyl-1,3-diazinane-2,4,6-trione",CC1C(=O)NC(=O)N(C1=O)C,616.61,6,"[1, 6, 7, 8]",4,True,CHON,amide
4793,"2,4-dihydroxy-3,3-dimethylbutanenitrile",CC(C)(CO)C(C#N)O,619.65,6,"[1, 6, 7, 8]",4,True,CHON,alcohol
4794,2-(2-carbamoyloxyethoxy)ethyl carbamate,C(COC(=O)N)OCCOC(=O)N,620.8,6,"[1, 6, 7, 8]",4,True,CHON,ester
4795,2-[2-(2-hydroxyethylamino)ethylamino]ethanol,C(CNCCO)NCCO,621.58,6,"[1, 6, 7, 8]",4,True,CHON,alcohol
4796,"cyclohexane-1,2,3-triol",C1CC(C(C(C1)O)O)O,623.63,6,"[1, 6, 8]",3,True,CHO,alcohol
4797,2-prop-2-enylpropanedioic acid,C=CCC(C(=O)O)C(=O)O,624.14,6,"[1, 6, 8]",3,True,CHO,alkene
4798,"2,2-dimethylbutanedioic acid",CC(C)(CC(=O)O)C(=O)O,624.67,6,"[1, 6, 8]",3,True,CHO,alcohol
4799,4-hydroxy-N-(2-hydroxyethyl)butanamide,C(CC(=O)NCCO)CO,625.28,6,"[1, 6, 7, 8]",4,True,CHON,alcohol
4800,"2,6-diaminohexanoic acid",C(CCN)CC(C(=O)O)N,627.01,6,"[1, 6, 7, 8]",4,True,CHON,carboxylic_acid
4801,"2,3-dimethylbutanedioic acid",CC(C(C)C(=O)O)C(=O)O,627.02,6,"[1, 6, 8]",3,True,CHO,alcohol
4802,2-propylpropanedioic acid,CCCC(C(=O)O)C(=O)O,627.46,6,"[1, 6, 8]",3,True,CHO,alcohol
4803,3-methylpentanedioic acid,CC(CC(=O)O)CC(=O)O,627.46,6,"[1, 6, 8]",3,True,CHO,alcohol
4804,2-ethylbutanedioic acid,CCC(CC(=O)O)C(=O)O,627.46,6,"[1, 6, 8]",3,True,CHO,alcohol
4805,2-methylpentanedioic acid,CC(CCC(=O)O)C(=O)O,627.46,6,"[1, 6, 8]",3,True,CHO,alcohol
4806,"3,4-dihydroxyhexane-2,5-dione",CC(=O)C(C(C(=O)C)O)O,628.1,6,"[1, 6, 8]",3,True,CHO,alcohol
4807,2-hydroxypropyl N-(2-hydroxyethyl)carbamate,CC(COC(=O)NCCO)O,629.19,6,"[1, 6, 7, 8]",4,True,CHON,ester
4808,"1,3-bis(hydroxymethyl)-1,3-diazinan-2-one",C1CN(C(=O)N(C1)CO)CO,629.62,6,"[1, 6, 7, 8]",4,True,CHON,amide
4809,(E)-3-methylpent-2-enedioic acid,C/C(=C\C(=O)O)/CC(=O)O,631.94,6,"[1, 6, 8]",3,True,CHO,alkene
4810,(E)-hex-3-enedioic acid,C(/C=C/CC(=O)O)C(=O)O,632.06,6,"[1, 6, 8]",3,True,CHO,alkene
4811,"3,6-dihydroxy-3,3a,6,6a-tetrahydrofuro[3,2-b]furan-2,5-dione",C12C(C(C(=O)O1)O)OC(=O)C2O,633.28,6,"[1, 6, 8]",3,True,CHO,ester
4812,"cyclobutane-1,2-dicarboxylic acid",C1CC(C1C(=O)O)C(=O)O,634.24,6,"[1, 6, 8]",3,True,CHO,alcohol
4813,"cyclobutane-1,3-dicarboxylic acid",C1C(CC1C(=O)O)C(=O)O,634.24,6,"[1, 6, 8]",3,True,CHO,alcohol
4814,"1,1-bis(2-hydroxyethyl)-3-methylurea",CNC(=O)N(CCO)CCO,637.72,6,"[1, 6, 7, 8]",4,True,CHON,amide
4815,"cyclobutane-1,1-dicarboxylic acid",C1CC(C1)(C(=O)O)C(=O)O,639.15,6,"[1, 6, 8]",3,True,CHO,alcohol
4816,2-(3-oxobutanoylamino)acetic acid,CC(=O)CC(=O)NCC(=O)O,640.3,6,"[1, 6, 7, 8]",4,True,CHON,carboxylic_acid
4817,"2-amino-3,5-dioxohexanamide",CC(=O)CC(=O)C(C(=O)N)N,643.11,6,"[1, 6, 7, 8]",4,True,CHON,amide
4818,"hexa-2,4-diynedioic acid",C(#CC(=O)O)C#CC(=O)O,645.9,6,"[1, 6, 8]",3,True,CHO,alkyne
4819,"6-methyloxane-2,4,5-triol",CC1C(C(CC(O1)O)O)O,645.91,6,"[1, 6, 8]",3,True,CHO,ester
4820,2-(4-hydroxy-2-oxopyrrolidin-1-yl)acetamide,C1C(CN(C1=O)CC(=O)N)O,646.73,6,"[1, 6, 7, 8]",4,True,CHON,amide
4821,2-cyano-N-(ethylcarbamoyl)acetamide,CCNC(=O)NC(=O)CC#N,647.04,6,"[1, 6, 7, 8]",4,True,CHON,amide
4822,2-(1-carboxyethoxy)propanoic acid,CC(C(=O)O)OC(C)C(=O)O,649.44,6,"[1, 6, 8]",3,True,CHO,carboxylic_acid
4823,2-[bis(cyanomethyl)amino]acetonitrile,C(C#N)N(CC#N)CC#N,655.56,6,"[1, 6, 7]",3,True,CHN,amine
4824,2-(2-aminopropanoylamino)propanoic acid,CC(C(=O)NC(C)C(=O)O)N,658.08,6,"[1, 6, 7, 8]",4,True,CHON,carboxylic_acid
4825,2-(3-aminopropanoylamino)propanoic acid,CC(C(=O)O)NC(=O)CCN,658.52,6,"[1, 6, 7, 8]",4,True,CHON,carboxylic_acid
4826,"2-hydroxypropane-1,2,3-tricarboxylic acid",C(C(=O)O)C(CC(=O)O)(C(=O)O)O,659.0,6,"[1, 6, 8]",3,True,CHO,alcohol
4827,"1-cyano-2,3-bis(methoxymethyl)guanidine",COCNC(=NCOC)NC#N,660.7,6,"[1, 6, 7, 8]",4,True,CHON,ester
4828,"2,2-bis(hydroxymethyl)butanoic acid",CCC(CO)(CO)C(=O)O,663.52,6,"[1, 6, 8]",3,True,CHO,alcohol
4829,"2,3-dihydroxypropyl propanoate",CCC(=O)OCC(CO)O,670.76,6,"[1, 6, 8]",3,True,CHO,ester
4830,3-(2-carboxyethylamino)propanoic acid,C(CNCCC(=O)O)C(=O)O,678.07,6,"[1, 6, 7, 8]",4,True,CHON,carboxylic_acid
4831,2-[bis(2-hydroxyethyl)amino]acetic acid,C(CO)N(CCO)CC(=O)O,679.19,6,"[1, 6, 7, 8]",4,True,CHON,carboxylic_acid
4832,"2-hydroxy-N,N-bis(2-hydroxyethyl)acetamide",C(CO)N(CCO)C(=O)CO,679.73,6,"[1, 6, 7, 8]",4,True,CHON,amide
4833,"2,6-dioxopiperidine-4-carboxylic acid",C1C(CC(=O)NC1=O)C(=O)O,686.13,6,"[1, 6, 7, 8]",4,True,CHON,carboxylic_acid
4834,"5-oxooxolane-2,3-dicarboxylic acid",C1C(C(OC1=O)C(=O)O)C(=O)O,688.19,6,"[1, 6, 8]",3,True,CHO,carboxylic_acid
4835,"N-(2,3-dihydroxypropyl)-N-(2-hydroxypropyl)nitrous amide",CC(CN(CC(CO)O)N=O)O,688.38,6,"[1, 6, 7, 8]",4,True,CHON,alcohol
4836,"2,5-dihydroxycyclohexa-2,5-diene-1,4-dione",C1=C(C(=O)C=C(C1=O)O)O,689.38,6,"[1, 6, 8]",3,True,CHO,alkene