,Name,SMILES,Tb,C Atom,Atom,Count Unique Atom,Pass Screen,Atom2,Func. Group
4837,hexanedihydrazide,C(CCC(=O)NN)CC(=O)NN,690.02,6,"[1, 6, 7, 8]",4,True,CHON,amide
4838,1-methyl-3-[2-[[methyl(nitroso)carbamoyl]amino]ethyl]-1-nitrosourea,CN(C(=O)NCCNC(=O)N(C)N=O)N=O,696.64,6,"[1, 6, 7, 8]",4,True,CHON,amide
4839,methyl 4-(2-methyliminohydrazinyl)-1H-imidazole-5-carboxylate,CN=NNC1=C(NC=N1)C(=O)OC,705.25,6,"[1, 6, 7, 8]",4,True,CHON,ester
4840,"(E)-N,N,N',N'-tetramethylprop-1-ene-1,3-diamine",CN(C)C/C=C/N(C)C,332.55,7,"[1, 6, 7]",3,True,CHN,alkene
4841,"2,5-dihydroxybenzaldehyde",C1=CC(=C(C=C1O)C=O)O,333.15,7,"[1, 6, 8]",3,True,CHO,aldehyde
4842,ethyl 3-methyl-2-oxobutanoate,CCOC(=O)C(=O)C(C)C,335.15,7,"[1, 6, 8]",3,True,CHO,ester
4843,"3,3-dimethylpenta-1,4-diyne",CC(C)(C#C)C#C,336.77,7,"[1, 6]",2,True,CH,alkyne
4844,"1,3,3-trimethoxybutane",CC(CCOC)(OC)OC,337.15,7,"[1, 6, 8]",3,True,CHO,ester
4845,"3,4-dimethylcyclopent-2-en-1-one",CC1CC(=O)C=C1C,340.65,7,"[1, 6, 8]",3,True,CHO,alkene
4846,"5-pyridin-4-yl-3H-1,3,4-oxadiazol-2-one",C1=CN=CC=C1C2=NNC(=O)O2,340.65,7,"[1, 6, 7, 8]",4,True,CHON,aromatic
4847,"1,2-diethynylcyclopropane",C#CC1CC1C#C,342.07,7,"[1, 6]",2,True,CH,alkyne
4848,1-(diethylamino)propan-2-one,CCN(CC)CC(=O)C,342.75,7,"[1, 6, 7, 8]",4,True,CHON,ketone
4849,3-methylhex-5-en-3-ol,CCC(C)(CC=C)O,343.15,7,"[1, 6, 8]",3,True,CHO,alkene
4850,"(3E,5E)-hepta-3,5-dien-2-one",C/C=C/C=C/C(=O)C,347.65,7,"[1, 6, 8]",3,True,CHO,alkene
4851,"3,3-dimethylpenta-1,4-diene",CC(C)(C=C)C=C,349.89,7,"[1, 6]",2,True,CH,alkene
4852,"3-ethenylpenta-1,4-diene",C=CC(C=C)C=C,350.15,7,"[1, 6]",2,True,CH,alkene
4853,1-(furan-2-yl)propan-1-one,CCC(=O)C1=CC=CO1,352.15,7,"[1, 6, 8]",3,True,CHO,aromatic
4854,N-methyl-N-prop-2-ynylprop-2-yn-1-amine,CN(CC#C)CC#C,352.44,7,"[1, 6, 7]",3,True,CHN,alkyne
4855,"2,3-dimethylpenta-1,4-diene",CC(C=C)C(=C)C,352.56,7,"[1, 6]",2,True,CH,alkene
4856,"2,4-dimethylpenta-1,4-diene",CC(=C)CC(=C)C,352.88,7,"[1, 6]",2,True,CH,alkene
4857,"3,5-dimethylcyclopentene",CC1CC(C=C1)C,353.0,7,"[1, 6]",2,True,CH,alkene
4858,"3,4-dimethylpent-1-yne",CC(C)C(C)C#C,353.15,7,"[1, 6]",2,True,CH,alkyne
4859,1-ethenyl-1-ethynylcyclopropane,C=CC1(CC1)C#C,353.54,7,"[1, 6]",2,True,CH,alkene
4860,(Z)-3-ethylpent-3-en-1-yne,CC/C(=C/C)/C#C,353.92,7,"[1, 6]",2,True,CH,alkene
4861,"tetracyclo[4.1.0.02,4.03,5]heptane",C1C2C1C3C4C2C34,356.03,7,"[1, 6]",2,True,CH,alkane
4862,N-methyl-1-pyridin-4-ylmethanamine,CNCC1=CC=NC=C1,357.15,7,"[1, 6, 7]",3,True,CHN,aromatic
4863,"(3E)-3-methylhexa-1,3,5-triene",C/C(=C\C=C)/C=C,357.16,7,"[1, 6]",2,True,CH,alkene
4864,"(3E)-2-methylhexa-1,3,5-triene",CC(=C)/C=C/C=C,357.16,7,"[1, 6]",2,True,CH,alkene
4865,"3-ethenylpenta-1,3-diene",CC=C(C=C)C=C,357.16,7,"[1, 6]",2,True,CH,alkene
4866,"(3E)-hepta-1,3,6-triene",C=CC/C=C/C=C,357.28,7,"[1, 6]",2,True,CH,alkene
4867,4-propan-2-ylmorpholine,CC(C)N1CCOCC1,357.55,7,"[1, 6, 7, 8]",4,True,CHON,ester
4868,3-methylhex-1-yne,CCCC(C)C#C,358.15,7,"[1, 6]",2,True,CH,alkyne
4869,"1,2-diethylcyclopropane",CCC1CC1CC,359.65,7,"[1, 6]",2,True,CH,alkane
4870,"1,1-bis(ethenyl)cyclopropane",C=CC1(CC1)C=C,360.1,7,"[1, 6]",2,True,CH,alkene
4871,"(3E)-5-methylhexa-1,3-diene",CC(C)/C=C/C=C,360.16,7,"[1, 6]",2,True,CH,alkene
4872,"(3E)-2,3-dimethylpenta-1,3-diene",C/C=C(\C)/C(=C)C,360.36,7,"[1, 6]",2,True,CH,alkene
4873,"(4E)-4-methylhexa-1,4-diene",C/C=C(\C)/CC=C,360.48,7,"[1, 6]",2,True,CH,alkene
4874,"(3E)-4-methylhexa-1,3-diene",CC/C(=C/C=C)/C,360.48,7,"[1, 6]",2,True,CH,alkene
4875,"(3E)-hepta-1,3-diene",CCC/C=C/C=C,360.6,7,"[1, 6]",2,True,CH,alkene
4876,"5-amino-2-hydroxycyclohepta-2,4,6-trien-1-one",C1=CC(=O)C(=CC=C1N)O,361.15,7,"[1, 6, 7, 8]",4,True,CHON,alcohol
4877,"1,1-diethylcyclopropane",CCC1(CC1)CC,361.82,7,"[1, 6]",2,True,CH,alkane
4878,"2-methylhexa-1,5-dien-3-yne",CC(=C)C#CC=C,362.0,7,"[1, 6]",2,True,CH,alkene
4879,"2-ethyl-1,1-dimethylcyclopropane",CCC1CC1(C)C,362.07,7,"[1, 6]",2,True,CH,alkane
4880,3-methyl-3-prop-1-en-2-ylcyclopropene,CC(=C)C1(C=C1)C,362.46,7,"[1, 6]",2,True,CH,alkene
4881,"heptane-1,2-diol",CCCCCC(CO)O,363.15,7,"[1, 6, 8]",3,True,CHO,alcohol
4882,1-methyl-1-prop-1-en-2-ylcyclopropane,CC(=C)C1(CC1)C,363.3,7,"[1, 6]",2,True,CH,alkene
4883,5-methyl-2-methylidenebicyclo[2.1.0]pentane,CC1C2C1C(=C)C2,363.46,7,"[1, 6]",2,True,CH,alkene
4884,"5,5-dimethylbicyclo[2.1.0]pent-2-ene",CC1(C2C1C=C2)C,363.7,7,"[1, 6]",2,True,CH,alkene
4885,2-propylpyrazine,CCCC1=NC=CN=C1,364.15,7,"[1, 6, 7]",3,True,CHN,aromatic
4886,"2,5-diaminocyclohepta-2,4,6-trien-1-one",C1=CC(=O)C(=CC=C1N)N,364.15,7,"[1, 6, 7, 8]",4,True,CHON,aromatic
4887,4-methylhex-1-yne,CCC(C)CC#C,364.15,7,"[1, 6]",2,True,CH,alkyne
4888,"5,5-dimethylbicyclo[2.1.0]pentane",CC1(C2C1CC2)C,364.54,7,"[1, 6]",2,True,CH,alkane
4889,"5-methylhexa-1,4-diene",CC(=CCC=C)C,364.98821,7,"[1, 6]",2,True,CH,alkene
4890,ethynylcyclopentane,C#CC1CCCC1,365.16,7,"[1, 6]",2,True,CH,alkyne
4891,propan-2-ylcyclobutane,CC(C)C1CCC1,365.72901,7,"[1, 6]",2,True,CH,alkane
4892,"tricyclo[4.1.0.02,7]hept-3-ene",C1C=CC2C3C1C23,365.93,7,"[1, 6]",2,True,CH,alkene
4893,"tricyclo[3.2.0.02,4]hept-6-ene",C1C2C1C3C2C=C3,365.93,7,"[1, 6]",2,True,CH,alkene
4894,2-cyclopent-2-en-1-ylacetic acid,C1CC(C=C1)CC(=O)O,366.15,7,"[1, 6, 8]",3,True,CHO,alkene
4895,di(propan-2-yl)cyanamide,CC(C)N(C#N)C(C)C,366.65,7,"[1, 6, 7]",3,True,CHN,amine
4896,"tricyclo[3.2.0.02,7]heptane",C1CC2C3C2C1C3,366.77,7,"[1, 6]",2,True,CH,alkane
4897,"tricyclo[2.2.1.02,6]heptane",C1C2CC3C1C3C2,366.77,7,"[1, 6]",2,True,CH,alkane
4898,"tricyclo[4.1.0.02,7]heptane",C1CC2C3C2C3C1,366.77,7,"[1, 6]",2,True,CH,alkane
4899,"tricyclo[3.2.0.02,4]heptane",C1CC2C1C3C2C3,366.77,7,"[1, 6]",2,True,CH,alkane
4900,"tricyclo[3.1.1.03,6]heptane",C1C2CC3C2C1C3,366.77,7,"[1, 6]",2,True,CH,alkane
4901,(E)-3-methylhex-2-ene,CCC/C(=C/C)/C,367.65,7,"[1, 6]",2,True,CH,alkene
4902,"(2E,4E)-hepta-2,4-diene",CC/C=C/C=C/C,368.08,7,"[1, 6]",2,True,CH,alkene
4903,"N,N,2,2-tetramethylpropan-1-amine",CC(C)(C)CN(C)C,368.97,7,"[1, 6, 7]",3,True,CHN,amine
4904,"2,3,4,6,7,8-hexahydropyrrolo[1,2-a]pyrimidine",C1CC2=NCCCN2C1,369.15,7,"[1, 6, 7]",3,True,CHN,amine
4905,"3,4-dimethylcyclopentene",CC1CC=CC1C,369.53,7,"[1, 6]",2,True,CH,alkene
4906,"(2E,4E)-5-(dimethylamino)penta-2,4-dienal",CN(C)/C=C/C=C/C=O,370.51,7,"[1, 6, 7, 8]",4,True,CHON,aldehyde
4907,[(Z)-but-2-en-2-yl]cyclopropane,C/C=C(/C)\C1CC1,370.54,7,"[1, 6]",2,True,CH,alkene
4908,but-1-enylcyclopropane,CCC=CC1CC1,370.66,7,"[1, 6]",2,True,CH,alkene
4909,propylcyclobutane,CCCC1CCC1,370.77,7,"[1, 6]",2,True,CH,alkane
4910,4-ethylcyclopentene,CCC1CC=CC1,371.15,7,"[1, 6]",2,True,CH,alkene
4911,"N,N,3-trimethylbutan-2-amine",CC(C)C(C)N(C)C,371.32,7,"[1, 6, 7]",3,True,CHN,amine
4912,5-methylidenebicyclo[2.2.0]hex-2-ene,C=C1CC2C1C=C2,371.56,7,"[1, 6]",2,True,CH,alkene
4913,"2-(furan-2-yl)-1,3-dioxolane",C1COC(O1)C2=CC=CO2,371.65,7,"[1, 6, 8]",3,True,CHO,ester
4914,N-(2-methylphenyl)hydroxylamine,CC1=CC=CC=C1NO,371.65,7,"[1, 6, 7, 8]",4,True,CHON,aromatic
4915,"tricyclo[4.1.0.01,3]heptane",C1CC2CC23C1C3,371.68,7,"[1, 6]",2,True,CH,alkane
4916,"spiro[bicyclo[2.1.0]pentane-5,1'-cyclopropane]",C1CC2C1C23CC3,371.68,7,"[1, 6]",2,True,CH,alkane
4917,but-1-en-2-ylcyclopropane,CCC(=C)C1CC1,371.72,7,"[1, 6]",2,True,CH,alkene
4918,"N,N,2-trimethylbutan-1-amine",CCC(C)CN(C)C,371.76,7,"[1, 6, 7]",3,True,CHN,amine
4919,N-methyl-N-propan-2-ylpropan-1-amine,CCCN(C)C(C)C,371.76,7,"[1, 6, 7]",3,True,CHN,amine
4920,butylcyclopropane,CCCCC1CC1,371.83707,7,"[1, 6]",2,True,CH,alkane
4921,"1,1-diethynylcyclopropane",C#CC1(CC1)C#C,373.0,7,"[1, 6]",2,True,CH,alkyne
4922,2-methyl-2-prop-2-enoxypropane,CC(C)(C)OCC=C,373.15,7,"[1, 6, 8]",3,True,CHO,ester
4923,"5,5-dimethylcyclopenta-1,3-diene",CC1(C=CC=C1)C,373.6,7,"[1, 6]",2,True,CH,alkene
4924,2-ethenoxy-3-methylbut-1-ene,CC(C)C(=C)OC=C,374.98,7,"[1, 6, 8]",3,True,CHO,ester
4925,cyclopropylmethylcyclopropane,C1CC1CC2CC2,375.15,7,"[1, 6]",2,True,CH,alkane
4926,2-methyl-3-prop-2-enoxyprop-1-ene,CC(=C)COCC=C,375.42,7,"[1, 6, 8]",3,True,CHO,ester
4927,"1-methylcyclohexa-1,3-diene",CC1=CC=CCC1,375.65,7,"[1, 6]",2,True,CH,alkene
4928,"bicyclo[4.1.0]hepta-2,4-diene",C1C2C1C=CC=C2,375.83,7,"[1, 6]",2,True,CH,alkene
4929,"1,2,3,3-tetramethylcyclopropene",CC1=C(C1(C)C)C,375.86,7,"[1, 6]",2,True,CH,alkene
4930,N-ethyl-N-methylbutan-2-amine,CCC(C)N(C)CC,376.15,7,"[1, 6, 7]",3,True,CHN,amine
4931,"(Z)-N,N-dimethylpent-2-en-3-amine",CC/C(=C/C)/N(C)C,376.24,7,"[1, 6, 7]",3,True,CHN,alkene
4932,dispiro[2.0.24.13]heptane,C1CC12CC23CC3,376.59,7,"[1, 6]",2,True,CH,alkane
4933,bicyclo[4.1.0]hept-2-ene,C1CC2CC2C=C1,376.67,7,"[1, 6]",2,True,CH,alkene
4934,bicyclo[3.2.0]hept-6-ene,C1CC2C=CC2C1,376.67,7,"[1, 6]",2,True,CH,alkene
4935,bicyclo[3.2.0]hept-2-ene,C1CC2C1CC=C2,376.67,7,"[1, 6]",2,True,CH,alkene
4936,"N,N-diethylprop-2-enamide",CCN(CC)C(=O)C=C,377.15,7,"[1, 6, 7, 8]",4,True,CHON,amide
4937,"5-methylcyclohexa-1,3-diene",CC1CC=CC=C1,377.63,7,"[1, 6]",2,True,CH,alkene
4938,"1,2-dimethylidenecyclopentane",C=C1CCCC1=C,378.03,7,"[1, 6]",2,True,CH,alkene
4939,2-methoxy-4-methylpent-1-ene,CC(C)CC(=C)OC,378.3,7,"[1, 6, 8]",3,True,CHO,ester
4940,2-ethoxy-3-methylbut-1-ene,CCOC(=C)C(C)C,378.3,7,"[1, 6, 8]",3,True,CHO,ester
4941,"2-methoxy-2,3-dimethylbutane",CC(C)C(C)(C)OC,378.51,7,"[1, 6, 8]",3,True,CHO,ester
4942,2-ethoxypentane,CCCC(C)OCC,378.65,7,"[1, 6, 8]",3,True,CHO,ester
4943,N-methyl-N-propylcyclopropanamine,CCCN(C)C1CC1,378.94,7,"[1, 6, 7]",3,True,CHN,amine
4944,2-methoxy-2-methylpentane,CCCC(C)(C)OC,378.95,7,"[1, 6, 8]",3,True,CHO,ester
4945,3-methoxy-3-methylpentane,CCC(C)(CC)OC,378.95,7,"[1, 6, 8]",3,True,CHO,ester
4946,2-ethenoxy-2-methylbutane,CCC(C)(C)OC=C,379.15,7,"[1, 6, 8]",3,True,CHO,ester
4947,"2,3-dimethylpenta-1,3-diene",CC=C(C)C(=C)C,380.05,7,"[1, 6]",2,True,CH,alkene
4948,hept-1-en-4-yne,CCC#CCC=C,380.15,7,"[1, 6]",2,True,CH,alkene
4949,2-ethylpentan-1-ol,CCCC(CC)CO,380.15,7,"[1, 6, 8]",3,True,CHO,alcohol
4950,"spiro[2.4]hepta-4,6-diene",C1CC12C=CC=C2,380.74,7,"[1, 6]",2,True,CH,alkene
4951,"spiro[3.3]hepta-2,6-diene",C1C=CC12CC=C2,380.74,7,"[1, 6]",2,True,CH,alkene
4952,"cycloheptane-1,2-dione",C1CCC(=O)C(=O)CC1,381.15,7,"[1, 6, 8]",3,True,CHO,ketone
4953,"N,N-diethylprop-1-yn-1-amine",CCN(CC)C#CC,381.2,7,"[1, 6, 7]",3,True,CHN,alkyne
4954,"N,N-dimethylpent-2-yn-1-amine",CCC#CCN(C)C,381.2,7,"[1, 6, 7]",3,True,CHN,alkyne
4955,2-methyl-1-propan-2-yloxypropane,CC(C)COC(C)C,381.3,7,"[1, 6, 8]",3,True,CHO,ester
4956,2-methoxy-3-methylpentane,CCC(C)C(C)OC,381.3,7,"[1, 6, 8]",3,True,CHO,ester
4957,2-methoxy-4-methylpentane,CC(C)CC(C)OC,381.3,7,"[1, 6, 8]",3,True,CHO,ester
4958,"3-methylidenecyclohexa-1,4-diene",C=C1C=CCC=C1,381.46,7,"[1, 6]",2,True,CH,alkene
4959,"5-methylidenecyclohexa-1,3-diene",C=C1CC=CC=C1,381.46,7,"[1, 6]",2,True,CH,alkene
4960,spiro[2.4]hept-6-ene,C1CC2(CC2)C=C1,381.58,7,"[1, 6]",2,True,CH,alkene
4961,1-methoxy-4-methylpentane,CC(C)CCCOC,381.74,7,"[1, 6, 8]",3,True,CHO,ester
4962,2-methoxyhexane,CCCCC(C)OC,381.74,7,"[1, 6, 8]",3,True,CHO,ester
4963,3-ethoxypentane,CCC(CC)OCC,381.74,7,"[1, 6, 8]",3,True,CHO,ester
4964,3-methoxyhexane,CCCC(CC)OC,381.74,7,"[1, 6, 8]",3,True,CHO,ester
4965,"N,N-dimethylpentan-2-amine",CCCC(C)N(C)C,382.15,7,"[1, 6, 7]",3,True,CHN,amine
4966,4-methylidenecyclohexene,C=C1CCC=CC1,382.3,7,"[1, 6]",2,True,CH,alkene
4967,2-ethenoxy-3-methylbut-2-ene,CC(=C(C)OC=C)C,382.78,7,"[1, 6, 8]",3,True,CHO,ester
4968,2-methyl-2-[(Z)-prop-1-enoxy]propane,C/C=C\OC(C)(C)C,383.11,7,"[1, 6, 8]",3,True,CHO,ester
4969,hept-1-en-3-yne,CCCC#CC=C,383.15,7,"[1, 6]",2,True,CH,alkene
4970,1-butylimidazole,CCCCN1C=CN=C1,383.15,7,"[1, 6, 7]",3,True,CHN,aromatic
4971,N-methyl-N-propan-2-ylpropan-2-amine,CC(C)N(C)C(C)C,383.65,7,"[1, 6, 7]",3,True,CHN,amine
4972,"1-N,1-N,2-N,2-N-tetramethylpropane-1,2-diamine",CC(CN(C)C)N(C)C,384.2,7,"[1, 6, 7]",3,True,CHN,amine
4973,"N'-ethyl-N,N,N'-trimethylethane-1,2-diamine",CCN(C)CCN(C)C,384.64,7,"[1, 6, 7]",3,True,CHN,amine
4974,"5-ethylidenecyclopenta-1,3-diene",CC=C1C=CC=C1,384.67,7,"[1, 6]",2,True,CH,alkene
4975,"cyclohepta-1,2,4,6-tetraene",C1=CC=C=CC=C1,384.73,7,"[1, 6]",2,True,CH,alkene
4976,"2,2,5-trimethylpyrrolidine",CC1CCC(N1)(C)C,385.15,7,"[1, 6, 7]",3,True,CHN,amine
4977,"N,N-diethylpropan-1-amine",CCCN(CC)CC,385.2,7,"[1, 6, 7]",3,True,CHN,amine
4978,"(E)-N,N-dimethylpent-3-en-1-yn-1-amine",C/C=C/C#CN(C)C,385.36,7,"[1, 6, 7]",3,True,CHN,alkene
4979,"heptane-2,6-dione",CC(=O)CCCC(=O)C,385.4,7,"[1, 6, 8]",3,True,CHO,ketone
4980,(3Z)-3-ethylidenecyclopentene,C/C=C\1/CCC=C1,385.51,7,"[1, 6]",2,True,CH,alkene
4981,2-methyl-2-azabicyclo[2.2.1]heptane,CN1CC2CCC1C2,385.68,7,"[1, 6, 7]",3,True,CHN,amine
4982,(E)-2-methoxy-4-methylpent-2-ene,CC(C)/C=C(\C)/OC,385.78,7,"[1, 6, 8]",3,True,CHO,ester
4983,2-methyl-1-[(Z)-prop-1-enoxy]propane,C/C=C\OCC(C)C,385.9,7,"[1, 6, 8]",3,True,CHO,ester
4984,(Z)-1-ethoxy-3-methylbut-1-ene,CCO/C=C\C(C)C,385.9,7,"[1, 6, 8]",3,True,CHO,ester
4985,2-methyl-N-propylpropan-2-amine,CCCNC(C)(C)C,386.15,7,"[1, 6, 7]",3,True,CHN,amine
4986,bicyclo[3.2.0]hept-1-ene,C1CC2CCC2=C1,386.32,7,"[1, 6]",2,True,CH,alkene
4987,(Z)-1-methoxyhex-3-ene,CC/C=C\CCOC,386.34,7,"[1, 6, 8]",3,True,CHO,ester
4988,"N,N-dimethylcyclopent-2-en-1-amine",CN(C)C1CCC=C1,386.64,7,"[1, 6, 7]",3,True,CHN,alkene
4989,"ethenyl 2,2-dimethylpropanoate",CC(C)(C)C(=O)OC=C,386.65,7,"[1, 6, 8]",3,True,CHO,ester
4990,"(3E,5E)-hepta-1,3,5-triene",C/C=C/C=C/C=C,386.65,7,"[1, 6]",2,True,CH,alkene
4991,"2,3,5-trimethylfuran",CC1=CC(=C(O1)C)C,387.15,7,"[1, 6, 8]",3,True,CHO,aromatic
4992,"1,4-dimethylpiperidine",CC1CCN(CC1)C,387.48,7,"[1, 6, 7]",3,True,CHN,amine
4993,"1,3-dimethylpiperidine",CC1CCCN(C1)C,387.48,7,"[1, 6, 7]",3,True,CHN,amine
4994,"1-methylcyclohexa-1,4-diene",CC1=CCC=CC1,387.65,7,"[1, 6]",2,True,CH,alkene
4995,1-(2-methylprop-1-enyl)azetidine,CC(=CN1CCC1)C,387.65,7,"[1, 6, 7]",3,True,CHN,alkene
4996,1-[(E)-but-1-enyl]azetidine,CC/C=C/N1CCC1,387.77,7,"[1, 6, 7]",3,True,CHN,alkene
4997,"1,2-dimethylcyclopenta-1,3-diene",CC1=C(C=CC1)C,387.99,7,"[1, 6]",2,True,CH,alkene
4998,"cyclohepta-1,4-diene",C1CC=CCC=C1,388.65,7,"[1, 6]",2,True,CH,alkene
4999,1-prop-2-enoxybutane,CCCCOCC=C,389.15,7,"[1, 6, 8]",3,True,CHO,ester
5000,methyl pyridine-2-carboxylate,COC(=O)C1=CC=CC=N1,389.15,7,"[1, 6, 7, 8]",4,True,CHON,ester
5001,"1,1-bis(ethenoxy)propane",CCC(OC=C)OC=C,390.15,7,"[1, 6, 8]",3,True,CHO,ester
5002,2-(1-ethoxyethoxy)propane,CCOC(C)OC(C)C,390.15,7,"[1, 6, 8]",3,True,CHO,ester
5003,N-ethyl-N-methylbutan-1-amine,CCCCN(C)CC,390.15,7,"[1, 6, 7]",3,True,CHN,amine
5004,2-methyl-1-[(E)-prop-1-enoxy]prop-1-ene,C/C=C/OC=C(C)C,390.38,7,"[1, 6, 8]",3,True,CHO,ester
5005,(E)-1-[(E)-prop-1-enoxy]but-1-ene,CC/C=C/O/C=C/C,390.5,7,"[1, 6, 8]",3,True,CHO,ester
5006,1-(2-ethoxyethoxy)propan-2-ol,CCOCCOCC(C)O,390.65,7,"[1, 6, 8]",3,True,CHO,ester
5007,"N,N,2-trimethylbutan-2-amine",CCC(C)(C)N(C)C,391.15,7,"[1, 6, 7]",3,True,CHN,amine
5008,"N,N-dimethyl-2-prop-2-enoxyethanamine",CN(C)CCOCC=C,391.3,7,"[1, 6, 7, 8]",4,True,CHON,ester
5009,1-methyl-4-methylidenepiperidine,CN1CCC(=C)CC1,391.31,7,"[1, 6, 7]",3,True,CHN,alkene
5010,"1,2,2,3-tetramethylimidazolidine",CC1(N(CCN1C)C)C,391.62,7,"[1, 6, 7]",3,True,CHN,amine
5011,2-ethyl-5-methylfuran,CCC1=CC=C(O1)C,391.65,7,"[1, 6, 8]",3,True,CHO,aromatic
5012,2-(propan-2-yloxymethoxy)propane,CC(C)OCOC(C)C,391.65,7,"[1, 6, 8]",3,True,CHO,ester
5013,"2,2,4-trimethylpyrrolidine",CC1CC(NC1)(C)C,392.15,7,"[1, 6, 7]",3,True,CHN,amine
5014,1-ethyl-2-methylpyrrolidine,CCN1CCCC1C,392.65,7,"[1, 6, 7]",3,True,CHN,amine
5015,1-hydroxycyclohexane-1-carbonitrile,C1CCC(CC1)(C#N)O,392.65,7,"[1, 6, 7, 8]",4,True,CHON,alcohol
5016,"2,3-dimethyl-2,3-diazabicyclo[2.2.1]hept-5-ene",CN1C2CC(N1C)C=C2,393.01,7,"[1, 6, 7]",3,True,CHN,alkene
5017,2-methoxyethyl 3-oxobutanoate,CC(=O)CC(=O)OCCOC,393.15,7,"[1, 6, 8]",3,True,CHO,ester
5018,1-azabicyclo[2.2.2]oct-2-ene,C1CN2CCC1C=C2,393.78,7,"[1, 6, 7]",3,True,CHN,alkene
5019,"bicyclo[3.2.0]hepta-2,6-diene",C1C=CC2C1C=C2,394.15,7,"[1, 6]",2,True,CH,alkene
5020,2-pyridin-4-ylethanamine,C1=CN=CC=C1CCN,394.15,7,"[1, 6, 7]",3,True,CHN,aromatic
5021,"bicyclo[3.2.0]hepta-1,4,6-triene",C1C=C2C=CC2=C1,394.29,7,"[1, 6]",2,True,CH,alkene
5022,1-azabicyclo[2.2.2]octane,C1CN2CCC1CC2,394.62,7,"[1, 6, 7]",3,True,CHN,amine
5023,"2,3,3-trimethylbutan-2-amine",CC(C)(C)C(C)(C)N,394.65,7,"[1, 6, 7]",3,True,CHN,amine
5024,1-(3-aminopropyl)pyrrolidin-2-one,C1CC(=O)N(C1)CCCN,394.65,7,"[1, 6, 7, 8]",4,True,CHON,amide
5025,"1,2,3-trimethyl-3,6-dihydropyridazine",CC1C=CCN(N1C)C,394.81,7,"[1, 6, 7]",3,True,CHN,alkene
5026,6-methoxyhex-1-ene,COCCCCC=C,395.85,7,"[1, 6, 8]",3,True,CHO,ester
5027,bicyclo[3.2.0]hept-1(5)-ene,C1CC2=C(C1)CC2,395.97,7,"[1, 6]",2,True,CH,alkene
5028,"N,4-dimethylpentan-2-amine",CC(C)CC(C)NC,396.15,7,"[1, 6, 7]",3,True,CHN,amine
5029,"N,N-dimethylcyclopenten-1-amine",CN(C)C1=CCCC1,396.29,7,"[1, 6, 7]",3,True,CHN,alkene
5030,"2-ethyl-2,4-dimethyl-1,3-dioxolane",CCC1(OCC(O1)C)C,396.9,7,"[1, 6, 8]",3,True,CHO,ester
5031,"1,2-diethoxypropane",CCOCC(C)OCC,397.65,7,"[1, 6, 8]",3,True,CHO,ester
5032,"1,1-dimethoxypentane",CCCCC(OC)OC,397.65,7,"[1, 6, 8]",3,True,CHO,ester
5033,"3-oxatricyclo[3.2.1.02,4]octane",C1CC2CC1C3C2O3,397.99,7,"[1, 6, 8]",3,True,CHO,ester
5034,1-ethoxy-3-methylbut-2-ene,CCOCC=C(C)C,398.0,7,"[1, 6, 8]",3,True,CHO,ester
5035,2-methyl-2-prop-2-enylperoxypropane,CC(C)(C)OOCC=C,398.05,7,"[1, 6, 8]",3,True,CHO,alkene
5036,2-methoxy-2-prop-2-enoxypropane,CC(C)(OC)OCC=C,398.05,7,"[1, 6, 8]",3,True,CHO,ester
5037,"2,2-dimethylpent-4-enal",CC(C)(CC=C)C=O,398.15,7,"[1, 6, 8]",3,True,CHO,alkene
5038,"methyl 3,3-dimethylbutanoate",CC(C)(C)CC(=O)OC,398.15,7,"[1, 6, 8]",3,True,CHO,ester
5039,"2,4-dimethylpentan-3-amine",CC(C)C(C(C)C)N,399.15,7,"[1, 6, 7]",3,True,CHN,amine
5040,N-ethyl-3-methylbutan-1-amine,CCNCCC(C)C,399.15,7,"[1, 6, 7]",3,True,CHN,amine
5041,"2,2-dimethylpentanal",CCCC(C)(C)C=O,399.65,7,"[1, 6, 8]",3,True,CHO,aldehyde
5042,N-methylhexan-1-amine,CCCCCCNC,400.15,7,"[1, 6, 7]",3,True,CHN,amine
5043,"4,4-dimethylpent-1-yn-3-one",CC(C)(C)C(=O)C#C,400.52,7,"[1, 6, 8]",3,True,CHO,alkyne
5044,"1-piperidin-4-ylethane-1,2-diol",C1CNCCC1C(CO)O,400.65,7,"[1, 6, 7, 8]",4,True,CHON,alcohol
5045,"2-methyl-2-propan-2-yl-1,3-dioxolane",CC(C)C1(OCCO1)C,400.65,7,"[1, 6, 8]",3,True,CHO,ester
5046,prop-2-enyl 2-methylpropanoate,CC(C)C(=O)OCC=C,400.65,7,"[1, 6, 8]",3,True,CHO,ester
5047,3-methoxycyclohexene,COC1CCCC=C1,400.89,7,"[1, 6, 8]",3,True,CHO,ester
5048,4-methoxycyclohexene,COC1CCC=CC1,400.89,7,"[1, 6, 8]",3,True,CHO,ester
5049,"2,2-dimethoxy-3-methylbutane",CC(C)C(C)(OC)OC,400.93,7,"[1, 6, 8]",3,True,CHO,ester
5050,"1,1-dimethoxy-2,2-dimethylpropane",CC(C)(C)C(OC)OC,400.93,7,"[1, 6, 8]",3,True,CHO,ester
5051,"2,2-dimethylpropyl acetate",CC(=O)OCC(C)(C)C,401.15,7,"[1, 6, 8]",3,True,CHO,ester
5052,"2,2-dimethoxypentane",CCCC(C)(OC)OC,401.37,7,"[1, 6, 8]",3,True,CHO,ester
5053,3-methylbutan-2-yl acetate,CC(C)C(C)OC(=O)C,401.65,7,"[1, 6, 8]",3,True,CHO,ester
5054,"2-ethyl-4,4-dimethyl-5H-1,3-oxazole",CCC1=NC(CO1)(C)C,402.15,7,"[1, 6, 7, 8]",4,True,CHON,ester
5055,"2,3-dimethylpentan-2-ol",CCC(C)C(C)(C)O,402.9,7,"[1, 6, 8]",3,True,CHO,alcohol
5056,"1-methyl-7-oxabicyclo[4.1.0]hepta-2,4-diene",CC12C=CC=CC1O2,403.02,7,"[1, 6, 8]",3,True,CHO,ester
5057,2-ethylpiperidine,CCC1CCCCN1,403.15,7,"[1, 6, 7]",3,True,CHN,amine
5058,"1,1-dimethoxy-2-methylbutane",CCC(C)C(OC)OC,403.72,7,"[1, 6, 8]",3,True,CHO,ester
5059,"1,1-dimethoxy-3-methylbutane",CC(C)CC(OC)OC,403.72,7,"[1, 6, 8]",3,True,CHO,ester
5060,"1-(2,2-dimethylcyclopropyl)ethanone",CC(=O)C1CC1(C)C,404.15,7,"[1, 6, 8]",3,True,CHO,ketone
5061,1-(1-ethoxyethoxy)propane,CCCOC(C)OCC,404.16,7,"[1, 6, 8]",3,True,CHO,ester
5062,"3,3-dimethylpentan-2-one",CCC(C)(C)C(=O)C,404.65,7,"[1, 6, 8]",3,True,CHO,ketone
5063,2-ethylpent-4-enal,CCC(CC=C)C=O,404.66,7,"[1, 6, 8]",3,True,CHO,alkene
5064,prop-2-ynyl 2-methylprop-2-enoate,CC(=C)C(=O)OCC#C,404.66,7,"[1, 6, 8]",3,True,CHO,ester
5065,tert-butyl prop-2-ynoate,CC(C)(C)OC(=O)C#C,404.87,7,"[1, 6, 8]",3,True,CHO,ester