,Name,SMILES,Tb,C Atom,Atom,Count Unique Atom,Pass Screen,Atom2,Func. Group
3041,2-hydroxyacetaldehyde,C(C=O)O,386.2,2,"[1, 6, 8]",3,True,CHO,alcohol
3042,formyl cyanide,C(=O)C#N,396.1,2,"[1, 6, 7, 8]",4,True,CHON,aldehyde
3043,"1,2,5-oxadiazole",C1=NON=C1,397.98,2,"[1, 6, 7, 8]",4,True,CHON,aromatic
3044,2-aminoacetonitrile,C(C#N)N,419.97,2,"[1, 6, 7]",3,True,CHN,amine
3045,methyl N-aminocarbamate,COC(=O)NN,426.28,2,"[1, 6, 7, 8]",4,True,CHON,ester
3046,1-methyltetrazole,CN1C=NN=N1,432.9,2,"[1, 6, 7]",3,True,CHN,aromatic
3047,2-methyltetrazole,CN1N=CN=N1,432.9,2,"[1, 6, 7]",3,True,CHN,aromatic
3048,"(E)-ethene-1,2-diol",C(=C/O)\O,433.88,2,"[1, 6, 8]",3,True,CHO,alkene
3049,N-(hydroperoxymethyl)-N-methylnitrous amide,CN(COO)N=O,435.8,2,"[1, 6, 7, 8]",4,True,CHON,ester
3050,oxaldehydic acid,C(=O)C(=O)O,439.53,2,"[1, 6, 8]",3,True,CHO,carboxylic_acid
3051,N-hydroxyacetamide,CC(=O)NO,441.58,2,"[1, 6, 7, 8]",4,True,CHON,amide
3052,2-aminoacetamide,C(C(=O)N)N,444.29,2,"[1, 6, 7, 8]",4,True,CHON,amide
3053,methoxyurea,CONC(=O)N,444.35,2,"[1, 6, 7, 8]",4,True,CHON,ester
3054,1-methyl-1-nitrosourea,CN(C(=O)N)N=O,447.6,2,"[1, 6, 7, 8]",4,True,CHON,amide
3055,"1,2,4-triazol-4-amine",C1=NN=CN1N,451.73,2,"[1, 6, 7]",3,True,CHN,aromatic
3056,2-aminoacetic acid,C(C(=O)O)N,463.4,2,"[1, 6, 7, 8]",4,True,CHON,carboxylic_acid
3057,2-hydroxyacetamide,C(C(=O)N)O,463.94,2,"[1, 6, 7, 8]",4,True,CHON,alcohol
3058,hydroxymethylperoxymethanol,C(O)OOCO,474.56,2,"[1, 6, 8]",3,True,CHO,alcohol
3059,2-aminooxyacetic acid,C(C(=O)O)ON,485.82,2,"[1, 6, 7, 8]",4,True,CHON,carboxylic_acid
3060,hydroxymethylcyanamide,C(NC#N)O,489.79,2,"[1, 6, 7, 8]",4,True,CHON,alcohol
3061,2-aminoacetohydrazide,C(C(=O)NN)N,494.46,2,"[1, 6, 7, 8]",4,True,CHON,amide
3062,oxamide,C(=O)(C(=O)N)N,498.16,2,"[1, 6, 7, 8]",4,True,CHON,amide
3063,2-amino-N-hydroxyacetamide,C(C(=O)NO)N,514.11,2,"[1, 6, 7, 8]",4,True,CHON,amide
3064,oxamic acid,C(=O)(C(=O)O)N,517.27,2,"[1, 6, 7, 8]",4,True,CHON,carboxylic_acid
3065,2-aminooxyethanol,C(CON)O,536.15,2,"[1, 6, 7, 8]",4,True,CHON,alcohol
3066,"1,2,4-triazolidine-3,5-dione",C1(=O)NC(=O)NN1,546.6,2,"[1, 6, 7, 8]",4,True,CHON,aromatic
3067,2-hydrazinyl-2-oxoacetamide,C(=O)(C(=O)NN)N,548.33,2,"[1, 6, 7, 8]",4,True,CHON,amide
3068,oxalic acid,C(=O)(C(=O)O)O,569.0,2,"[1, 6, 8]",3,True,CHO,alcohol
3069,ethanedihydrazide,C(=O)(C(=O)NN)NN,598.5,2,"[1, 6, 7, 8]",4,True,CHON,amide
3070,"N,N'-dihydroxyoxamide",C(=O)(C(=O)NO)NO,637.8,2,"[1, 6, 7, 8]",4,True,CHON,amide
3071,methoxyethyne,COC#C,297.15,3,"[1, 6, 8]",3,True,CHO,ester
3072,N-methoxy-N-methylmethanamine,CN(C)OC,303.1,3,"[1, 6, 7, 8]",4,True,CHON,ester
3073,1-nitrosoimidazolidin-2-one,C1CN(C(=O)N1)N=O,303.15,3,"[1, 6, 7, 8]",4,True,CHON,amide
3074,2-methylideneoxirane,C=C1CO1,305.76,3,"[1, 6, 8]",3,True,CHO,ester
3075,N-methylethenamine,CNC=C,315.09,3,"[1, 6, 7]",3,True,CHN,alkene
3076,"3-nitroso-1,3-oxazolidine",C1COCN1N=O,330.45,3,"[1, 6, 7, 8]",4,True,CHON,ester
3077,isocyanatoethene,C=CN=C=O,331.59,3,"[1, 6, 7, 8]",4,True,CHON,alkene
3078,N-ethenylmethanimine,C=CN=C,334.12,3,"[1, 6, 7]",3,True,CHN,alkene
3079,prop-1-en-2-amine,CC(=C)N,337.33,3,"[1, 6, 7]",3,True,CHN,alkene
3080,dioxolane,C1COOC1,342.09,3,"[1, 6, 8]",3,True,CHO,ester
3081,prop-1-en-1-amine,CC=CN,344.93,3,"[1, 6, 7]",3,True,CHN,alkene
3082,cycloprop-2-en-1-one,C1=CC1=O,346.63,3,"[1, 6, 8]",3,True,CHO,aromatic
3083,cyclopropanone,C1CC1=O,347.47,3,"[1, 6, 8]",3,True,CHO,ketone
3084,"1,2-oxazol-3-amine",C1=CON=C1N,348.65,3,"[1, 6, 7, 8]",4,True,CHON,aromatic
3085,prop-2-en-1-imine,C=CC=N,349.38,3,"[1, 6, 7]",3,True,CHN,alkene
3086,2-[methyl(nitroso)amino]acetic acid,CN(CC(=O)O)N=O,356.65,3,"[1, 6, 7, 8]",4,True,CHON,alcohol
3087,prop-1-en-2-ol,CC(=C)O,356.98,3,"[1, 6, 8]",3,True,CHO,alkene
3088,isocyanato(methoxy)methane,COCN=C=O,360.65,3,"[1, 6, 7, 8]",4,True,CHON,ester
3089,"1,2-oxazolidine",C1CNOC1,363.69,3,"[1, 6, 7, 8]",4,True,CHON,ester
3090,(E)-prop-1-en-1-ol,C/C=C/O,364.58,3,"[1, 6, 8]",3,True,CHO,alkene
3091,propanedial,C(C=O)C=O,365.56,3,"[1, 6, 8]",3,True,CHO,aldehyde
3092,cyclopropanol,C1CC1O,367.16,3,"[1, 6, 8]",3,True,CHO,alcohol
3093,methyl N-(oxomethylidene)carbamate,COC(=O)N=C=O,370.15,3,"[1, 6, 7, 8]",4,True,CHON,ester
3094,dimethylaminomethanol,CN(C)CO,372.86,3,"[1, 6, 7, 8]",4,True,CHON,alcohol
3095,methyl N-methylcarbamate,CNC(=O)OC,376.63,3,"[1, 6, 7, 8]",4,True,CHON,ester
3096,3-hydroperoxyprop-1-ene,C=CCOO,379.52,3,"[1, 6, 8]",3,True,CHO,alkene
3097,1-hydroperoxypropane,CCCOO,382.84,3,"[1, 6, 8]",3,True,CHO,ester
3098,ethoxymethanol,CCOCO,382.84,3,"[1, 6, 8]",3,True,CHO,ester
3099,prop-2-ynamide,C#CC(=O)N,384.76,3,"[1, 6, 7, 8]",4,True,CHON,alkyne
3100,"1,3-oxazolidin-2-one",C1COC(=O)N1,386.42,3,"[1, 6, 7, 8]",4,True,CHON,ester
3101,N-methyl-N-nitrosoacetamide,CC(=O)N(C)N=O,389.45,3,"[1, 6, 7, 8]",4,True,CHON,amide
3102,ethyl cyanate,CCOC#N,392.74,3,"[1, 6, 7, 8]",4,True,CHON,ester
3103,N-methoxyacetamide,CC(=O)NOC,394.7,3,"[1, 6, 7, 8]",4,True,CHON,ester
3104,ethenyl carbamate,C=COC(=O)N,395.67,3,"[1, 6, 7, 8]",4,True,CHON,ester
3105,dimethoxymethanimine,COC(=N)OC,397.42,3,"[1, 6, 7, 8]",4,True,CHON,ester
3106,methyl 2-aminoacetate,COC(=O)CN,398.99,3,"[1, 6, 7, 8]",4,True,CHON,ester
3107,azetidin-2-one,C1CNC1=O,400.29,3,"[1, 6, 7, 8]",4,True,CHON,amide
3108,"1-methyl-1,2,4-triazole",CN1C=NC=N1,402.08,3,"[1, 6, 7]",3,True,CHN,aromatic
3109,"4-methyl-1,2,4-triazole",CN1C=NN=C1,402.08,3,"[1, 6, 7]",3,True,CHN,aromatic
3110,1-methyltriazole,CN1C=CN=N1,402.08,3,"[1, 6, 7]",3,True,CHN,aromatic
3111,2-methyltriazole,CN1N=CC=N1,402.08,3,"[1, 6, 7]",3,True,CHN,aromatic
3112,"1,1-dimethylurea",CN(C)C(=O)N,407.08,3,"[1, 6, 7, 8]",4,True,CHON,amide
3113,N-methylacetohydrazide,CC(=O)N(C)N,407.08,3,"[1, 6, 7, 8]",4,True,CHON,amide
3114,2-hydroxypropanal,CC(C=O)O,408.64,3,"[1, 6, 8]",3,True,CHO,alcohol
3115,3-hydroxypropanal,C(CO)C=O,409.08,3,"[1, 6, 8]",3,True,CHO,alcohol
3116,2-methoxyacetamide,COCC(=O)N,417.06,3,"[1, 6, 7, 8]",4,True,CHON,ester
3117,5-ethyl-2H-tetrazole,CCC1=NNN=N1,419.15,3,"[1, 6, 7]",3,True,CHN,aromatic
3118,2-(methylamino)acetonitrile,CNCC#N,420.49,3,"[1, 6, 7]",3,True,CHN,amine
3119,N'-methylacetohydrazide,CC(=O)NNC,422.45,3,"[1, 6, 7, 8]",4,True,CHON,amide
3120,"2,3-dihydroxypropanal",C(C(C=O)O)O,423.15,3,"[1, 6, 8]",3,True,CHO,alcohol
3121,aziridine-2-carbonitrile,C1C(N1)C#N,425.61,3,"[1, 6, 7]",3,True,CHN,amine
3122,N-hydroxy-N-methylacetamide,CC(=O)N(C)O,426.73,3,"[1, 6, 7, 8]",4,True,CHON,amide
3123,oxirane-2-carboxamide,C1C(O1)C(=O)N,428.33,3,"[1, 6, 7, 8]",4,True,CHON,ester
3124,ethyl hydrogen carbonate,CCOC(=O)O,433.4,3,"[1, 6, 8]",3,True,CHO,carboxylic_acid
3125,(NE)-N-prop-2-enylidenehydroxylamine,C=C/C=N/O,433.78,3,"[1, 6, 7, 8]",4,True,CHON,alkene
3126,N-(2-hydroxyethyl)-N-methylnitrous amide,CN(CCO)N=O,436.26,3,"[1, 6, 7, 8]",4,True,CHON,alcohol
3127,"1,1-dimethylguanidine",CN(C)C(=N)N,437.55,3,"[1, 6, 7]",3,True,CHN,amine
3128,2-aminopropanenitrile,CC(C#N)N,442.41,3,"[1, 6, 7]",3,True,CHN,amine
3129,cyanomethyl formate,C(C#N)OC=O,446.15,3,"[1, 6, 7, 8]",4,True,CHON,ester
3130,"1,3-dimethyl-1-nitrosourea",CNC(=O)N(C)N=O,448.12,3,"[1, 6, 7, 8]",4,True,CHON,amide
3131,2-oxopropanamide,CC(=O)C(=O)N,448.51,3,"[1, 6, 7, 8]",4,True,CHON,amide
3132,ethyl N-aminocarbamate,CCOC(=O)NN,449.16,3,"[1, 6, 7, 8]",4,True,CHON,ester
3133,triazine,C1=CN=NN=C1,451.04,3,"[1, 6, 7]",3,True,CHN,aromatic
3134,2-hydroxyethyl formate,C(COC=O)O,453.15,3,"[1, 6, 8]",3,True,CHO,ester
3135,2-hydroxypropanedial,C(=O)C(C=O)O,457.3,3,"[1, 6, 8]",3,True,CHO,alcohol
3136,N-carbamoylacetamide,CC(=O)NC(=O)N,458.15,3,"[1, 6, 7, 8]",4,True,CHON,amide
3137,N-(2-hydroxyethyl)formamide,C(CO)NC=O,459.25,3,"[1, 6, 7, 8]",4,True,CHON,alcohol
3138,2-(methylamino)acetic acid,CNCC(=O)O,463.92,3,"[1, 6, 7, 8]",4,True,CHON,carboxylic_acid
3139,N-(hydroxymethyl)acetamide,CC(=O)NCO,464.46,3,"[1, 6, 7, 8]",4,True,CHON,alcohol
3140,N-(formamidomethyl)formamide,C(NC=O)NC=O,465.9,3,"[1, 6, 7, 8]",4,True,CHON,amide
3141,methyl N-(hydroxymethyl)carbamate,COC(=O)NCO,468.81,3,"[1, 6, 7, 8]",4,True,CHON,ester
3142,N-(cyanomethyl)formamide,C(C#N)NC=O,469.15,3,"[1, 6, 7, 8]",4,True,CHON,amide
3143,1-ethyl-1-nitrosourea,CCN(C(=O)N)N=O,470.48,3,"[1, 6, 7, 8]",4,True,CHON,amide
3144,methyl N-cyanocarbamate,COC(=O)NC#N,478.71,3,"[1, 6, 7, 8]",4,True,CHON,ester
3145,"1,4-dimethyltetrazol-5-one",CN1C(=O)N(N=N1)C,478.91,3,"[1, 6, 7, 8]",4,True,CHON,aromatic
3146,N-ethenylformamide,C=CNC=O,483.15,3,"[1, 6, 7, 8]",4,True,CHON,alkene
3147,2-aminopropanoic acid,CC(C(=O)O)N,485.84,3,"[1, 6, 7, 8]",4,True,CHON,carboxylic_acid
3148,3-aminopropanoic acid,C(CN)C(=O)O,486.28,3,"[1, 6, 7, 8]",4,True,CHON,carboxylic_acid
3149,2-hydroxypropanamide,CC(C(=O)N)O,486.38,3,"[1, 6, 7, 8]",4,True,CHON,alcohol
3150,(1E)-1-hydroxyiminopropan-2-one,CC(=O)/C=N/O,490.97,3,"[1, 6, 7, 8]",4,True,CHON,ketone
3151,methyl 2-oxoacetate,COC(=O)C=O,491.05,3,"[1, 6, 8]",3,True,CHO,ester
3152,"2,2-dihydroperoxypropane",CC(C)(OO)OO,494.21,3,"[1, 6, 8]",3,True,CHO,ester
3153,2-cyanoacetamide,C(C#N)C(=O)N,496.72,3,"[1, 6, 7, 8]",4,True,CHON,amide
3154,"1,3-diaminopropan-2-ol",C(C(CN)O)N,505.04,3,"[1, 6, 7, 8]",4,True,CHON,alcohol
3155,"1,1-dihydroxypropan-2-one",CC(=O)C(O)O,506.03,3,"[1, 6, 8]",3,True,CHO,alcohol
3156,"1,3-dihydroxypropan-2-one",C(C(=O)CO)O,506.47,3,"[1, 6, 8]",3,True,CHO,alcohol
3157,1-(tetrazol-1-yl)ethanone,CC(=O)N1C=NN=N1,509.65,3,"[1, 6, 7, 8]",4,True,CHON,aromatic
3158,2-(methylamino)-2-oxoacetic acid,CNC(=O)C(=O)O,517.79,3,"[1, 6, 7, 8]",4,True,CHON,carboxylic_acid
3159,"imidazolidine-2,4-dione",C1C(=O)NC(=O)N1,520.93,3,"[1, 6, 7, 8]",4,True,CHON,amide
3160,propanediamide,C(C(=O)N)C(=O)N,521.04,3,"[1, 6, 7, 8]",4,True,CHON,amide
3161,"2-aminopropane-1,3-diol",C(C(CO)N)O,524.69,3,"[1, 6, 7, 8]",4,True,CHON,alcohol
3162,2-aminoethylcarbamic acid,C(CNC(=O)O)N,536.45,3,"[1, 6, 7, 8]",4,True,CHON,carboxylic_acid
3163,propanedioic acid,C(C(=O)O)C(=O)O,536.65,3,"[1, 6, 8]",3,True,CHO,alcohol
3164,2-hydroxyethylurea,C(CO)NC(=O)N,536.99,3,"[1, 6, 7, 8]",4,True,CHON,alcohol
3165,"1-nitrosoimidazolidine-2,4-dione",C1C(=O)NC(=O)N1N=O,543.95,3,"[1, 6, 7, 8]",4,True,CHON,amide
3166,2-cyanoacetohydrazide,C(C#N)C(=O)NN,546.89,3,"[1, 6, 7, 8]",4,True,CHON,amide
3167,2-(hydroxymethylamino)acetic acid,C(C(=O)O)NCO,556.1,3,"[1, 6, 7, 8]",4,True,CHON,alcohol
3168,"2,3-diaminopropanoic acid",C(C(C(=O)O)N)N,558.37,3,"[1, 6, 7, 8]",4,True,CHON,carboxylic_acid
3169,N-(methoxymethyl)-N-methylnitrous amide,CN(COC)N=O,558.65,3,"[1, 6, 7, 8]",4,True,CHON,ester
3170,2-[formyl(hydroxy)amino]acetic acid,C(C(=O)O)N(C=O)O,567.03,3,"[1, 6, 7, 8]",4,True,CHON,alcohol
3171,3-carbamoyl-1-methyl-1-nitrosourea,CN(C(=O)NC(=O)N)N=O,574.52,3,"[1, 6, 7, 8]",4,True,CHON,amide
3172,2-amino-3-hydroxypropanoic acid,C(C(C(=O)O)N)O,578.02,3,"[1, 6, 7, 8]",4,True,CHON,carboxylic_acid
3173,3-amino-2-hydroxypropanoic acid,C(C(C(=O)O)O)N,578.02,3,"[1, 6, 7, 8]",4,True,CHON,carboxylic_acid
3174,"1H-1,3,5-triazine-2,4-dione",C1=NC(=O)NC(=O)N1,578.06,3,"[1, 6, 7, 8]",4,True,CHON,aromatic
3175,"2H-1,2,4-triazine-3,5-dione",C1=NNC(=O)NC1=O,578.06,3,"[1, 6, 7, 8]",4,True,CHON,aromatic
3176,"imidazolidine-2,4,5-trione",C1(=O)C(=O)NC(=O)N1,588.75,3,"[1, 6, 7, 8]",4,True,CHON,amide
3177,2-(carbamoylamino)acetic acid,C(C(=O)O)NC(=O)N,590.32,3,"[1, 6, 7, 8]",4,True,CHON,alcohol
3178,"1,1-bis(hydroxymethyl)urea",C(N(CO)C(=O)N)O,591.44,3,"[1, 6, 7, 8]",4,True,CHON,amide
3179,"2,3-dihydroxypropanoic acid",C(C(C(=O)O)O)O,597.67,3,"[1, 6, 8]",3,True,CHO,alcohol
3180,2-(tetrazol-1-yl)acetic acid,C1=NN=NN1CC(=O)O,601.29,3,"[1, 6, 7, 8]",4,True,CHON,aromatic
3181,"1,3-bis(hydroxymethyl)urea",C(NC(=O)NCO)O,606.81,3,"[1, 6, 7, 8]",4,True,CHON,alcohol
3182,2-[carbamoyl(nitroso)amino]acetic acid,C(C(=O)O)N(C(=O)N)N=O,615.99,3,"[1, 6, 7, 8]",4,True,CHON,carboxylic_acid
3183,propanedihydrazide,C(C(=O)NN)C(=O)NN,621.38,3,"[1, 6, 7, 8]",4,True,CHON,amide
3184,2-(diaminomethylideneamino)acetic acid,C(C(=O)O)N=C(N)N,635.37,3,"[1, 6, 7, 8]",4,True,CHON,alcohol
3185,"1,3,5-triazinane-2,4,6-trione",C1(=O)NC(=O)NC(=O)N1,641.57,3,"[1, 6, 7, 8]",4,True,CHON,aromatic
3186,2-hydroxypropanedioic acid,C(C(=O)O)(C(=O)O)O,651.0,3,"[1, 6, 8]",3,True,CHO,alcohol
3187,"(1E,3E)-1,3-bis(hydroxyimino)propan-2-one",C(=N/O)\C(=O)/C=N/O,659.83,3,"[1, 6, 7, 8]",4,True,CHON,ketone
3188,1-cyano-2-(hydroxymethyl)guanidine,C(N=C(N)NC#N)O,661.76,3,"[1, 6, 7, 8]",4,True,CHON,alcohol
3189,(2E)-2-(carbamoylhydrazinylidene)acetic acid,C(=N/NC(=O)N)\C(=O)O,667.0,3,"[1, 6, 7, 8]",4,True,CHON,alcohol
3190,"diazirine-3,3-dicarboxylic acid",C(=O)(C1(N=N1)C(=O)O)O,672.8,3,"[1, 6, 7, 8]",4,True,CHON,alcohol
3191,"1,3,5-triazine-2,4,6-triamine",C1(=NC(=NC(=N1)N)N)N,704.0,3,"[1, 6, 7]",3,True,CHN,aromatic
3192,1-nitrosopyrrolidin-2-one,C1CC(=O)N(C1)N=O,271.15,4,"[1, 6, 7, 8]",4,True,CHON,amide
3193,1-nitroso-1-propylurea,CCCN(C(=O)N)N=O,275.15,4,"[1, 6, 7, 8]",4,True,CHON,amide
3194,1-methylcyclopropene,CC1=CC1,277.85,4,"[1, 6]",2,True,CH,alkene
3195,methylidenecyclopropane,C=C1CC1,281.49,4,"[1, 6]",2,True,CH,alkene
3196,ethynoxyethene,C=COC#C,300.34,4,"[1, 6, 8]",3,True,CHO,ester
3197,3-methylidenecyclopropene,C=C1C=C1,300.85,4,"[1, 6]",2,True,CH,alkene
3198,cyclobutadiene,C1=CC=C1,305.12,4,"[1, 6]",2,True,CH,alkene
3199,1-(2-hydroxypropyl)-1-nitrosourea,CC(CN(C(=O)N)N=O)O,314.35,4,"[1, 6, 7, 8]",4,True,CHON,alcohol
3200,bicyclo[1.1.0]but-1(3)-ene,C1C2=C1C2,314.52,4,"[1, 6]",2,True,CH,alkene
3201,1-methylazetidine,CN1CCC1,314.97,4,"[1, 6, 7]",3,True,CHN,amine
3202,3-carbamoyl-1-ethyl-1-nitrosourea,CCN(C(=O)NC(=O)N)N=O,317.15,4,"[1, 6, 7, 8]",4,True,CHON,amide
3203,(Z)-1-methoxyprop-1-ene,C/C=C\OC,318.65,4,"[1, 6, 8]",3,True,CHO,ester
3204,(E)-1-methoxyprop-1-ene,C/C=C/OC,319.15,4,"[1, 6, 8]",3,True,CHO,ester
3205,1-methoxyprop-1-yne,CC#COC,322.54,4,"[1, 6, 8]",3,True,CHO,ester
3206,1-ethenylaziridine,C=CN1CC1,327.15,4,"[1, 6, 7]",3,True,CHN,alkene
3207,but-3-ynal,C#CCC=O,329.9,4,"[1, 6, 8]",3,True,CHO,alkyne
3208,1-methylcyclopropan-1-amine,CC1(CC1)N,332.15,4,"[1, 6, 7]",3,True,CHN,amine
3209,"1,1-dimethoxyethene",COC(=C)OC,332.52,4,"[1, 6, 8]",3,True,CHO,ester
3210,but-3-en-2-amine,CC(C=C)N,335.45,4,"[1, 6, 7]",3,True,CHN,alkene
3211,but-3-enal,C=CCC=O,336.46,4,"[1, 6, 8]",3,True,CHO,alkene
3212,methoxymethoxyethane,CCOCOC,339.05,4,"[1, 6, 8]",3,True,CHO,ester
3213,3-methoxypropan-1-ol,COCCCO,339.15,4,"[1, 6, 8]",3,True,CHO,ester
3214,"2,2-dimethylaziridine",CC1(CN1)C,342.65,4,"[1, 6, 7]",3,True,CHN,amine
3215,(Z)-but-2-enal,C/C=C\C=O,343.94,4,"[1, 6, 8]",3,True,CHO,alkene
3216,"2,3-dimethyloxirane",CC1C(O1)C,344.15,4,"[1, 6, 8]",3,True,CHO,ester
3217,4-methyloxetan-2-one,CC1CC(=O)O1,345.15,4,"[1, 6, 8]",3,True,CHO,ester
3218,cycloprop-2-ene-1-carbaldehyde,C1=CC1C=O,345.68,4,"[1, 6, 8]",3,True,CHO,alkene
3219,"2-methyl-1,2-oxazolidine",CN1CCCO1,346.19,4,"[1, 6, 7, 8]",4,True,CHON,ester
3220,4-oxobutanenitrile,C(CC#N)C=O,350.15,4,"[1, 6, 7, 8]",4,True,CHON,aldehyde
3221,N-methylprop-1-yn-1-amine,CC#CNC,350.29,4,"[1, 6, 7]",3,True,CHN,alkyne
3222,2-methylprop-2-en-1-amine,CC(=C)CN,350.35,4,"[1, 6, 7]",3,True,CHN,alkene
3223,cyclopropylmethanamine,C1CC1CN,356.65,4,"[1, 6, 7]",3,True,CHN,amine
3224,4-hydroperoxy-4-oxobutanoic acid,C(CC(=O)OO)C(=O)O,359.85,4,"[1, 6, 8]",3,True,CHO,alcohol
3225,3H-furan-2-one,C1C=COC1=O,359.91,4,"[1, 6, 8]",3,True,CHO,ester
3226,(E)-but-2-en-1-amine,C/C=C/CN,361.15,4,"[1, 6, 7]",3,True,CHN,alkene
3227,2-ethylaziridine,CCC1CN1,361.65,4,"[1, 6, 7]",3,True,CHN,amine
3228,"methyl N,N-dimethylcarbamate",CN(C)C(=O)OC,361.78,4,"[1, 6, 7, 8]",4,True,CHON,ester
3229,3-methoxypropanal,COCCC=O,362.2,4,"[1, 6, 8]",3,True,CHO,ester
3230,2-ethoxyacetaldehyde,CCOCC=O,362.2,4,"[1, 6, 8]",3,True,CHO,ester
3231,"2,3-dihydro-1H-pyrrole",C1CNC=C1,363.4,4,"[1, 6, 7]",3,True,CHN,alkene
3232,N-methyl-N-prop-2-enylnitrous amide,CN(CC=C)N=O,363.64,4,"[1, 6, 7, 8]",4,True,CHON,alkene
3233,N-ethenyl-N-ethylnitrous amide,CCN(C=C)N=O,363.64,4,"[1, 6, 7, 8]",4,True,CHON,alkene
3234,"4-methylidene-1,3-dioxolane",C=C1COCO1,364.13,4,"[1, 6, 8]",3,True,CHO,ester
3235,1-(aziridin-1-yl)ethanone,CC(=O)N1CC1,364.57,4,"[1, 6, 7, 8]",4,True,CHON,amide
3236,N-(hydroperoxymethyl)-N-propylnitrous amide,CCCN(COO)N=O,366.15,4,"[1, 6, 7, 8]",4,True,CHON,ester
3237,ethyl ethanimidate,CCOC(=N)C,366.65,4,"[1, 6, 7, 8]",4,True,CHON,ester
3238,"3,6-dihydro-1,2-dioxine",C1C=CCOO1,368.4,4,"[1, 6, 8]",3,True,CHO,alkene
3239,"3-methyl-1,3-oxazolidin-2-one",CN1CCOC1=O,368.92,4,"[1, 6, 7, 8]",4,True,CHON,ester
3240,"4-methyl-1,3-dioxole",CC1=COCO1,369.11,4,"[1, 6, 8]",3,True,CHO,ester
3241,dioxane,C1CCOOC1,369.24,4,"[1, 6, 8]",3,True,CHO,ester
3242,but-1-en-3-yn-2-ol,C=C(C#C)O,369.98,4,"[1, 6, 8]",3,True,CHO,alkene
3243,"3-methyl-1,3-oxazolidine",CN1CCOC1,371.15,4,"[1, 6, 7, 8]",4,True,CHON,ester
3244,methoxymethyl acetate,CC(=O)OCOC,371.76,4,"[1, 6, 8]",3,True,CHO,ester
3245,but-3-enyl nitrite,C=CCCON=O,373.62,4,"[1, 6, 7, 8]",4,True,CHON,alkene
3246,cyclobut-2-en-1-one,C1C=CC1=O,373.78,4,"[1, 6, 8]",3,True,CHO,alkene
3247,"(E)-1,2-dimethoxyethene",CO/C=C/OC,375.15,4,"[1, 6, 8]",3,True,CHO,ester
3248,"buta-1,3-dien-2-ol",C=CC(=C)O,376.54,4,"[1, 6, 8]",3,True,CHO,alkene
3249,but-1-en-2-ol,CCC(=C)O,379.86,4,"[1, 6, 8]",3,True,CHO,alkene
3250,2-methoxypropanal,CC(C=O)OC,380.15,4,"[1, 6, 8]",3,True,CHO,ester
3251,prop-2-ynyl formate,C#CCOC=O,380.15,4,"[1, 6, 8]",3,True,CHO,ester
3252,[(2R)-2-methyloxiran-2-yl]methanol,C[C@]1(CO1)CO,380.15,4,"[1, 6, 8]",3,True,CHO,ester
3253,"N,N,N'-trimethylmethanimidamide",CN=CN(C)C,381.15,4,"[1, 6, 7]",3,True,CHN,amine
3254,N-ethenylacetamide,CC(=O)NC=C,381.15,4,"[1, 6, 7, 8]",4,True,CHON,alkene
3255,"1-nitroso-2,5-dihydropyrrole",C1C=CCN1N=O,381.8,4,"[1, 6, 7, 8]",4,True,CHON,alkene
3256,1-methylazetidin-2-one,CN1CCC1=O,382.79,4,"[1, 6, 7, 8]",4,True,CHON,amide
3257,"(1Z)-buta-1,3-dien-1-ol",C=C/C=C\O,384.14,4,"[1, 6, 8]",3,True,CHO,alkene
3258,"2,2-dimethoxyacetaldehyde",COC(C=O)OC,384.18,4,"[1, 6, 8]",3,True,CHO,ester
3259,(Z)-but-2-en-2-ol,C/C=C(/C)\O,387.34,4,"[1, 6, 8]",3,True,CHO,alkene
3260,(E)-but-2-en-2-ol,C/C=C(\C)/O,387.34,4,"[1, 6, 8]",3,True,CHO,alkene
3261,(E)-but-1-en-1-ol,CC/C=C/O,387.46,4,"[1, 6, 8]",3,True,CHO,alkene
3262,2-ethenoxyethanamine,C=COCCN,388.15,4,"[1, 6, 7, 8]",4,True,CHON,ester
3263,dimethoxymethylidenecyanamide,COC(=NC#N)OC,388.15,4,"[1, 6, 7, 8]",4,True,CHON,ester
3264,butanedial,C(CC=O)C=O,388.44,4,"[1, 6, 8]",3,True,CHO,aldehyde
3265,N-(1-methoxyethyl)-N-methylnitrous amide,CC(N(C)N=O)OC,388.94,4,"[1, 6, 7, 8]",4,True,CHON,ester
3266,N-ethyl-N-(methoxymethyl)nitrous amide,CCN(COC)N=O,389.38,4,"[1, 6, 7, 8]",4,True,CHON,ester
3267,N-propylformamide,CCCNC=O,389.95,4,"[1, 6, 7, 8]",4,True,CHON,amide
3268,N-methoxypropan-2-imine,CC(=NOC)C,390.1,4,"[1, 6, 7, 8]",4,True,CHON,ester
3269,methyl N-methylethanimidate,CC(=NC)OC,390.1,4,"[1, 6, 7, 8]",4,True,CHON,ester
3270,oxazinane,C1CCONC1,390.84,4,"[1, 6, 7, 8]",4,True,CHON,ester
3271,methyl 2-hydroxy-2-methoxyacetate,COC(C(=O)OC)O,391.65,4,"[1, 6, 8]",3,True,CHO,ester
3272,N-methylprop-2-enamide,CNC(=O)C=C,391.84,4,"[1, 6, 7, 8]",4,True,CHON,alkene
3273,2-methoxypropanenitrile,CC(C#N)OC,392.15,4,"[1, 6, 7, 8]",4,True,CHON,ester
3274,(Z)-but-2-enedial,C(=C\C=O)\C=O,392.6,4,"[1, 6, 8]",3,True,CHO,alkene
3275,ethyl 2-oxoacetate,CCOC(=O)C=O,398.0,4,"[1, 6, 8]",3,True,CHO,ester
3276,"1,3,5-trioxepane",C1COCOCO1,400.46,4,"[1, 6, 8]",3,True,CHO,ester
3277,but-2-ynenitrile,CC#CC#N,402.2,4,"[1, 6, 7]",3,True,CHN,alkyne
3278,"2-methoxy-1,3-dioxolane",COC1OCCO1,402.65,4,"[1, 6, 8]",3,True,CHO,ester
3279,"5-methyl-1,3-oxazolidin-2-one",CC1CNC(=O)O1,404.63,4,"[1, 6, 7, 8]",4,True,CHON,ester
3280,"4-methyl-1,3-oxazolidin-2-one",CC1COC(=O)N1,404.63,4,"[1, 6, 7, 8]",4,True,CHON,ester
3281,"5-methyl-3-nitroso-1,3-oxazolidine",CC1CN(CO1)N=O,404.92,4,"[1, 6, 7, 8]",4,True,CHON,ester
3282,"2-methyl-3-nitroso-1,3-oxazolidine",CC1N(CCO1)N=O,404.92,4,"[1, 6, 7, 8]",4,True,CHON,ester
3283,1-hydroperoxybutane,CCCCOO,405.72,4,"[1, 6, 8]",3,True,CHO,ester