,Name,SMILES,Tb,C Atom,Atom,Count Unique Atom,Pass Screen,Atom2,Func. Group
9037,5-ethenyl-5-methyl-2-propan-2-yloxolan-2-ol,CC(C)C1(CCC(O1)(C)C=C)O,554.86,10,"[1, 6, 8]",3,True,CHO,ester
9038,"6-ethenyl-2,2,6-trimethyloxan-3-ol",CC1(C(CCC(O1)(C)C=C)O)C,554.9,10,"[1, 6, 8]",3,True,CHO,ester
9039,cyclodecanol,C1CCCCC(CCCC1)O,557.21,10,"[1, 6, 8]",3,True,CHO,alcohol
9040,2-(6-methyl-7-oxabicyclo[4.1.0]heptan-3-yl)propan-2-ol,CC12CCC(CC1O2)C(C)(C)O,557.62,10,"[1, 6, 8]",3,True,CHO,ester
9041,"2,6,6-trimethylcyclohexa-1,3-diene-1-carbonitrile",CC1=C(C(CC=C1)(C)C)C#N,558.55,10,"[1, 6, 7]",3,True,CHN,alkene
9042,propan-2-yl 7-aminoheptanoate,CC(C)OC(=O)CCCCCCN,558.71,10,"[1, 6, 7, 8]",4,True,CHON,ester
9043,"dimethyl cyclohex-4-ene-1,2-dicarboxylate",COC(=O)C1CC=CCC1C(=O)OC,558.88,10,"[1, 6, 8]",3,True,CHO,ester
9044,cyclohexyl 3-oxobutanoate,CC(=O)CC(=O)OC1CCCCC1,560.04,10,"[1, 6, 8]",3,True,CHO,ester
9045,prop-2-enyl 2-(2-oxo-2-prop-2-enoxyethoxy)acetate,C=CCOC(=O)COCC(=O)OCC=C,560.62,10,"[1, 6, 8]",3,True,CHO,ester
9046,6-methyl-3-propan-2-yl-7-oxabicyclo[4.1.0]heptan-3-ol,CC(C)C1(CCC2(C(C1)O2)C)O,560.65,10,"[1, 6, 8]",3,True,CHO,ester
9047,1-methyl-4-propan-2-yl-7-oxabicyclo[2.2.1]heptan-2-ol,CC(C)C12CCC(O1)(C(C2)O)C,560.65,10,"[1, 6, 8]",3,True,CHO,ester
9048,"1,3,3-trimethyl-2-oxabicyclo[2.2.2]octan-6-ol",CC1(C2CCC(O1)(C(C2)O)C)C,560.69,10,"[1, 6, 8]",3,True,CHO,ester
9049,"4-oxatetracyclo[6.2.1.02,7.03,5]undecan-3-ol",C1CC2CC1C3C2C4(C(C3)O4)O,561.12,10,"[1, 6, 8]",3,True,CHO,ester
9050,"1-(2,4-dimethoxyphenyl)ethanone",CC(=O)C1=C(C=C(C=C1)OC)OC,561.15,10,"[1, 6, 8]",3,True,CHO,ester
9051,4-phenoxybutanenitrile,C1=CC=C(C=C1)OCCCC#N,561.15,10,"[1, 6, 7, 8]",4,True,CHON,ester
9052,1-[1-[(2-methylpropan-2-yl)oxy]propan-2-yloxy]propan-2-ol,CC(COC(C)COC(C)(C)C)O,561.31,10,"[1, 6, 8]",3,True,CHO,ester
9053,diethyl 2-(dimethylaminomethylidene)propanedioate,CCOC(=O)C(=CN(C)C)C(=O)OCC,561.32,10,"[1, 6, 7, 8]",4,True,CHON,ester
9054,3-acetyl-5-(prop-2-enoxymethyl)oxolan-2-one,CC(=O)C1CC(OC1=O)COCC=C,561.66,10,"[1, 6, 8]",3,True,CHO,ester
9055,1-[(2-methylpropan-2-yl)oxy]-3-propoxypropan-2-ol,CCCOCC(COC(C)(C)C)O,561.75,10,"[1, 6, 8]",3,True,CHO,ester
9056,1-[butyl(nitroso)amino]butyl acetate,CCCCN(C(CCC)OC(=O)C)N=O,562.02,10,"[1, 6, 7, 8]",4,True,CHON,ester
9057,"(3,7,7-trimethyloxepan-2-yl)methanol",CC1CCCC(OC1CO)(C)C,562.25,10,"[1, 6, 8]",3,True,CHO,ester
9058,(8-methyl-8-azabicyclo[3.2.1]octan-3-yl) N-methylcarbamate,CNC(=O)OC1CC2CCC(C1)N2C,562.31,10,"[1, 6, 7, 8]",4,True,CHON,ester
9059,2-[2-[2-(oxiran-2-ylmethoxy)ethoxy]ethoxymethyl]oxirane,C1C(O1)COCCOCCOCC2CO2,563.04,10,"[1, 6, 8]",3,True,CHO,ester
9060,"2-methyl-5-propan-2-ylbenzene-1,4-diol",CC1=CC(=C(C=C1O)C(C)C)O,563.15,10,"[1, 6, 8]",3,True,CHO,aromatic
9061,"1-(3,5-dimethoxyphenyl)ethanone",CC(=O)C1=CC(=CC(=C1)OC)OC,563.65,10,"[1, 6, 8]",3,True,CHO,ester
9062,dec-9-ynoic acid,C#CCCCCCCCC(=O)O,564.03,10,"[1, 6, 8]",3,True,CHO,alkyne
9063,"4,7-dioxadispiro[4.0.46.25]dodeca-1,9-diene-3,8-dione",C1CC2(C13C=CC(=O)O3)C=CC(=O)O2,564.26,10,"[1, 6, 8]",3,True,CHO,ester
9064,1-(1-butoxypropan-2-yloxy)propan-2-ol,CCCCOCC(C)OCC(C)O,564.54,10,"[1, 6, 8]",3,True,CHO,ester
9065,2-[2-(2-methylpentoxy)ethoxy]ethanol,CCCC(C)COCCOCCO,564.98,10,"[1, 6, 8]",3,True,CHO,ester
9066,4-piperidin-4-ylpyridine,C1CNCCC1C2=CC=NC=C2,565.15,10,"[1, 6, 7]",3,True,CHN,aromatic
9067,diethyl 2-(2-methoxyethyl)propanedioate,CCOC(=O)C(CCOC)C(=O)OCC,566.82,10,"[1, 6, 8]",3,True,CHO,ester
9068,4-(azepan-1-yl)butanenitrile,C1CCCN(CC1)CCCC#N,567.14,10,"[1, 6, 7]",3,True,CHN,amine
9069,"6-hydroxy-2,6-dimethyloct-7-en-4-one",CC(C)CC(=O)CC(C)(C=C)O,567.46,10,"[1, 6, 8]",3,True,CHO,alkene
9070,"4-hydroxy-2,2,5,5-tetramethylhexan-3-one",CC(C)(C)C(C(=O)C(C)(C)C)O,567.55,10,"[1, 6, 8]",3,True,CHO,alcohol
9071,"methyl 2,4-dimethoxybenzoate",COC1=CC(=C(C=C1)C(=O)OC)OC,567.65,10,"[1, 6, 8]",3,True,CHO,ester
9072,(E)-3-(2-methoxyphenyl)prop-2-enal,COC1=CC=CC=C1/C=C/C=O,568.15,10,"[1, 6, 8]",3,True,CHO,ester
9073,"pentacyclo[4.3.0.02,5.03,8.04,7]nonane-4-carboxylic acid",C1C2C3C4C1C5C2C3C45C(=O)O,568.22,10,"[1, 6, 8]",3,True,CHO,alcohol
9074,2-(2-methoxyethoxy)-N-[2-(2-methoxyethoxy)ethyl]ethanamine,COCCOCCNCCOCCOC,568.25,10,"[1, 6, 7, 8]",4,True,CHON,ester
9075,ethyl 6-methyl-2-oxocyclohex-3-ene-1-carboxylate,CCOC(=O)C1C(CC=CC1=O)C,568.48,10,"[1, 6, 8]",3,True,CHO,ester
9076,"tert-butyl 1,4-diazepane-1-carboxylate",CC(C)(C)OC(=O)N1CCCNCC1,568.6,10,"[1, 6, 7, 8]",4,True,CHON,ester
9077,"3,3-bis(2-methoxyethoxy)butan-2-one",CC(=O)C(C)(OCCOC)OCCOC,568.72,10,"[1, 6, 8]",3,True,CHO,ester
9078,2-[2-(2-azabicyclo[2.2.1]heptan-2-yl)ethoxy]ethanol,C1CC2CC1CN2CCOCCO,568.92,10,"[1, 6, 7, 8]",4,True,CHON,ester
9079,(1-prop-2-ynylcyclohexyl) carbamate,C#CCC1(CCCCC1)OC(=O)N,569.06,10,"[1, 6, 7, 8]",4,True,CHON,ester
9080,(E)-6-(1-ethoxyethoxy)hex-2-en-1-ol,CCOC(C)OCCC/C=C/CO,569.14,10,"[1, 6, 8]",3,True,CHO,ester
9081,1-methoxybicyclo[2.2.2]oct-5-ene-2-carbonitrile,COC12CCC(CC1C#N)C=C2,569.65,10,"[1, 6, 7, 8]",4,True,CHON,ester
9082,3-pyridin-4-ylpyridine,C1=CC(=CN=C1)C2=CC=NC=C2,570.15,10,"[1, 6, 7]",3,True,CHN,aromatic
9083,4-propan-2-ylbenzonitrile,CC(C)C1=CC=C(C=C1)C#N,570.15,10,"[1, 6, 7]",3,True,CHN,aromatic
9084,2-(octan-2-ylamino)ethanol,CCCCCCC(C)NCCO,570.31,10,"[1, 6, 7, 8]",4,True,CHON,alcohol
9085,dec-9-enoic acid,C=CCCCCCCCC(=O)O,570.59,10,"[1, 6, 8]",3,True,CHO,alkene
9086,"7,7-dimethyloctanoic acid",CC(C)(C)CCCCCC(=O)O,570.68,10,"[1, 6, 8]",3,True,CHO,alcohol
9087,"2,2-dimethyloctanoic acid",CCCCCCC(C)(C)C(=O)O,570.68,10,"[1, 6, 8]",3,True,CHO,alcohol
9088,3-ethyl-3-methylheptanoic acid,CCCCC(C)(CC)CC(=O)O,570.68,10,"[1, 6, 8]",3,True,CHO,alcohol
9089,2-(octylamino)ethanol,CCCCCCCCNCCO,570.75,10,"[1, 6, 7, 8]",4,True,CHON,alcohol
9090,3-[4-(3-aminopropoxy)butoxy]propan-1-amine,C(CCOCCCN)COCCCN,571.15,10,"[1, 6, 7, 8]",4,True,CHON,ester
9091,"8-methylnonane-1,2-diamine",CC(C)CCCCCC(CN)N,572.58,10,"[1, 6, 7]",3,True,CHN,amine
9092,"5-methylnonane-1,9-diamine",CC(CCCCN)CCCCN,573.02,10,"[1, 6, 7]",3,True,CHN,amine
9093,8-methylnonanoic acid,CC(C)CCCCCCC(=O)O,573.47,10,"[1, 6, 8]",3,True,CHO,alcohol
9094,2-methylnonanoic acid,CCCCCCCC(C)C(=O)O,573.47,10,"[1, 6, 8]",3,True,CHO,alcohol
9095,2-propylheptanoic acid,CCCCCC(CCC)C(=O)O,573.47,10,"[1, 6, 8]",3,True,CHO,alcohol
9096,3-methylnonanoic acid,CCCCCCC(C)CC(=O)O,573.47,10,"[1, 6, 8]",3,True,CHO,alcohol
9097,6-(1-ethoxyethoxy)hex-2-yn-1-ol,CCOC(C)OCCCC#CCO,573.98,10,"[1, 6, 8]",3,True,CHO,ester
9098,methyl 3-(2-oxocyclohexyl)propanoate,COC(=O)CCC1CCCCC1=O,573.99,10,"[1, 6, 8]",3,True,CHO,ester
9099,"decane-1,10-diol",C(CCCCCO)CCCCO,574.0,10,"[1, 6, 8]",3,True,CHO,alcohol
9100,6-hydroxydecan-5-one,CCCCC(C(=O)CCCC)O,574.01,10,"[1, 6, 8]",3,True,CHO,alcohol
9101,N-methyl-1-phenylpropan-2-amine,CC(CC1=CC=CC=C1)NC,574.65,10,"[1, 6, 7]",3,True,CHN,aromatic
9102,methyl 3-[4-acetyloxybutyl(nitroso)amino]propanoate,CC(=O)OCCCCN(CCC(=O)OC)N=O,575.15,10,"[1, 6, 7, 8]",4,True,CHON,ester
9103,"2,2-dimethyl-3-(2-methylprop-1-enyl)cyclopropane-1-carboxylic acid",CC(=CC1C(C1(C)C)C(=O)O)C,575.59,10,"[1, 6, 8]",3,True,CHO,alkene
9104,"dipropyl 2,3-dihydroxybutanedioate",CCCOC(=O)C(C(C(=O)OCCC)O)O,576.15,10,"[1, 6, 8]",3,True,CHO,ester
9105,2-methylquinolin-7-amine,CC1=NC2=C(C=C1)C=CC(=C2)N,577.15,10,"[1, 6, 7]",3,True,CHN,aromatic
9106,"1,7,7-trimethylbicyclo[2.2.1]heptane-2,3-dione",CC1(C2CCC1(C(=O)C2=O)C)C,577.6,10,"[1, 6, 8]",3,True,CHO,ketone
9107,"1,3,3-trimethylbicyclo[2.2.1]heptane-2,5-dione",CC1(C2CC(C1=O)(CC2=O)C)C,577.6,10,"[1, 6, 8]",3,True,CHO,ketone
9108,2-methylquinolin-6-ol,CC1=NC2=C(C=C1)C=C(C=C2)O,577.65,10,"[1, 6, 7, 8]",4,True,CHON,aromatic
9109,(E)-dec-2-enoic acid,CCCCCCC/C=C/C(=O)O,578.07,10,"[1, 6, 8]",3,True,CHO,alkene
9110,dec-3-enoic acid,CCCCCCC=CCC(=O)O,578.07,10,"[1, 6, 8]",3,True,CHO,alkene
9111,(E)-dec-4-enoic acid,CCCCC/C=C/CCC(=O)O,578.07,10,"[1, 6, 8]",3,True,CHO,alkene
9112,(E)-dec-5-enoic acid,CCCC/C=C/CCCC(=O)O,578.07,10,"[1, 6, 8]",3,True,CHO,alkene
9113,(E)-dec-6-enoic acid,CCC/C=C/CCCCC(=O)O,578.07,10,"[1, 6, 8]",3,True,CHO,alkene
9114,ethyl 2-oxocycloheptane-1-carboxylate,CCOC(=O)C1CCCCCC1=O,578.26,10,"[1, 6, 8]",3,True,CHO,ester
9115,2-hydroxyheptyl propanoate,CCCCCC(COC(=O)CC)O,578.36,10,"[1, 6, 8]",3,True,CHO,ester
9116,methyl (E)-3-[propan-2-yl-(propan-2-ylideneamino)amino]prop-2-enoate,CC(C)N(/C=C/C(=O)OC)N=C(C)C,579.34,10,"[1, 6, 7, 8]",4,True,CHON,ester
9117,"2,2,5,5-tetramethylcyclohexane-1,3-dione",CC1(CC(=O)C(C(=O)C1)(C)C)C,579.4,10,"[1, 6, 8]",3,True,CHO,ketone
9118,"3,3,6,6-tetramethylcyclohexane-1,2-dione",CC1(CCC(C(=O)C1=O)(C)C)C,579.4,10,"[1, 6, 8]",3,True,CHO,ketone
9119,"4,4,6,6-tetramethylcyclohexane-1,3-dione",CC1(CC(C(=O)CC1=O)(C)C)C,579.4,10,"[1, 6, 8]",3,True,CHO,ketone
9120,"1,2,3,4-tetrahydronaphthalen-2-amine",C1CC2=CC=CC=C2CC1N,579.65,10,"[1, 6, 7]",3,True,CHN,aromatic
9121,"2-tert-butylcyclohexane-1,3-dione",CC(C)(C)C1C(=O)CCCC1=O,580.36,10,"[1, 6, 8]",3,True,CHO,ketone
9122,6-oxo-3-prop-1-en-2-ylheptanenitrile,CC(=C)C(CCC(=O)C)CC#N,580.47,10,"[1, 6, 7, 8]",4,True,CHON,alkene
9123,"(2Z)-3,7-dimethylocta-2,6-dienoic acid",CC(=CCC/C(=C\C(=O)O)/C)C,581.99,10,"[1, 6, 8]",3,True,CHO,alkene
9124,"(2E,4E)-4-ethylocta-2,4-dienoic acid",CCC/C=C(\CC)/C=C/C(=O)O,582.11,10,"[1, 6, 8]",3,True,CHO,alkene
9125,"(2E,4E)-deca-2,4-dienoic acid",CCCCC/C=C/C=C/C(=O)O,582.23,10,"[1, 6, 8]",3,True,CHO,alkene
9126,"3,3-dimethylbicyclo[2.2.1]heptane-2-carboxylic acid",CC1(C2CCC(C2)C1C(=O)O)C,582.56,10,"[1, 6, 8]",3,True,CHO,alcohol
9127,"1-methyl-3,3-di(propan-2-yl)azetidine-2,4-dione",CC(C)C1(C(=O)N(C1=O)C)C(C)C,582.58,10,"[1, 6, 7, 8]",4,True,CHON,amide
9128,"1,4,9,12-tetraoxadispiro[4.2.48.25]tetradecane",C1CC2(CCC13OCCO3)OCCO2,582.92,10,"[1, 6, 8]",3,True,CHO,ester
9129,"tricyclo[4.2.2.02,5]dec-7-ene-3,4-dione",C1CC2C=CC1C3C2C(=O)C3=O,583.02,10,"[1, 6, 8]",3,True,CHO,alkene
9130,"dimethyl cyclohexene-1,2-dicarboxylate",COC(=O)C1=C(CCCC1)C(=O)OC,583.15,10,"[1, 6, 8]",3,True,CHO,ester
9131,(2-methyl-5-oxocyclopenten-1-yl) butanoate,CCCC(=O)OC1=C(CCC1=O)C,583.51,10,"[1, 6, 8]",3,True,CHO,ester
9132,tert-butyl 4-oxopiperidine-1-carboxylate,CC(C)(C)OC(=O)N1CCC(=O)CC1,583.6,10,"[1, 6, 7, 8]",4,True,CHON,ester
9133,"adamantane-2,6-dione",C1C2CC3CC(C2=O)CC1C3=O,583.86,10,"[1, 6, 8]",3,True,CHO,ketone
9134,"tricyclo[6.2.0.03,6]decane-2,7-dione",C1CC2C1C(=O)C3CCC3C2=O,583.86,10,"[1, 6, 8]",3,True,CHO,ketone
9135,"tricyclo[4.2.2.02,5]decane-3,4-dione",C1CC2CCC1C3C2C(=O)C3=O,583.86,10,"[1, 6, 8]",3,True,CHO,ketone
9136,1-tert-butylperoxy-3-propoxypropan-2-ol,CCCOCC(COOC(C)(C)C)O,584.17,10,"[1, 6, 8]",3,True,CHO,ester
9137,"[2,2-di(propan-2-yl)-1,3-dioxolan-4-yl]methanol",CC(C)C1(OCC(O1)CO)C(C)C,584.45,10,"[1, 6, 8]",3,True,CHO,ester
9138,ethyl 3-oxo-8-azabicyclo[3.2.1]octane-8-carboxylate,CCOC(=O)N1C2CCC1CC(=O)C2,584.63,10,"[1, 6, 7, 8]",4,True,CHON,ester
9139,ethyl 5-oxo-2-azabicyclo[2.2.2]octane-2-carboxylate,CCOC(=O)N1CC2CCC1CC2=O,584.63,10,"[1, 6, 7, 8]",4,True,CHON,ester
9140,"(2-hexyl-1,3-dioxolan-4-yl)methanol",CCCCCCC1OCC(O1)CO,585.09,10,"[1, 6, 8]",3,True,CHO,ester
9141,3-(N-methylanilino)propanenitrile,CN(CCC#N)C1=CC=CC=C1,586.15,10,"[1, 6, 7]",3,True,CHN,aromatic
9142,"3a,6a-dimethyl-1,3,4,6-tetrahydropentalene-2,5-dione",CC12CC(=O)CC1(CC(=O)C2)C,586.54,10,"[1, 6, 8]",3,True,CHO,ketone
9143,"(5E)-5-piperidin-2-ylidene-3,4-dihydro-2H-pyridine",C1CCN/C(=C/2\CCCN=C2)/C1,587.37,10,"[1, 6, 7]",3,True,CHN,alkene
9144,"7-propan-2-ylidenebicyclo[2.2.1]hept-5-ene-2,3-dione",CC(=C1C2C=CC1C(=O)C2=O)C,587.47,10,"[1, 6, 8]",3,True,CHO,alkene
9145,3-methyl-1-phenylpyrazol-4-amine,CC1=NN(C=C1N)C2=CC=CC=C2,587.65,10,"[1, 6, 7]",3,True,CHN,aromatic
9146,5-methylhexan-2-yl 2-cyanoacetate,CC(C)CCC(C)OC(=O)CC#N,587.82,10,"[1, 6, 7, 8]",4,True,CHON,ester
9147,3-[3-(3-methoxypropoxy)propoxy]propan-1-ol,COCCCOCCCOCCCO,587.84,10,"[1, 6, 8]",3,True,CHO,ester
9148,4-propan-2-ylcyclohexane-1-carboxylic acid,CC(C)C1CCC(CC1)C(=O)O,588.35,10,"[1, 6, 8]",3,True,CHO,alcohol
9149,[4-(aminomethyl)-4-ethylcyclohexyl]methanamine,CCC1(CCC(CC1)CN)CN,588.58,10,"[1, 6, 7]",3,True,CHN,amine
9150,"2-hexyl-1,3-dioxan-5-ol",CCCCCCC1OCC(CO1)O,589.36,10,"[1, 6, 8]",3,True,CHO,ester
9151,"tricyclo[3.3.1.03,7]nonane-3-carboxylic acid",C1C2CC3CC1CC3(C2)C(=O)O,589.7,10,"[1, 6, 8]",3,True,CHO,alcohol
9152,"2,2,6,6-tetramethylpiperidine-4-carbonitrile",CC1(CC(CC(N1)(C)C)C#N)C,589.72,10,"[1, 6, 7]",3,True,CHN,amine
9153,"ethyl 5,5-dimethyl-2,4-dioxohexanoate",CCOC(=O)C(=O)CC(=O)C(C)(C)C,591.13,10,"[1, 6, 8]",3,True,CHO,ester
9154,2-(1-oxa-4-azaspiro[4.5]decan-4-yl)ethanol,C1CCC2(CC1)N(CCO2)CCO,591.17,10,"[1, 6, 7, 8]",4,True,CHON,ester
9155,methyl (1E)-3-oxocyclooctene-1-carboxylate,COC(=O)/C/1=C/C(=O)CCCCC1,591.34,10,"[1, 6, 8]",3,True,CHO,ester
9156,2-(butylcarbamoyloxy)ethyl prop-2-enoate,CCCCNC(=O)OCCOC(=O)C=C,591.69,10,"[1, 6, 7, 8]",4,True,CHON,ester
9157,2-cyclohexylbutanoic acid,CCC(C1CCCCC1)C(=O)O,593.02,10,"[1, 6, 8]",3,True,CHO,alcohol
9158,4-methylquinolin-2-amine,CC1=CC(=NC2=CC=CC=C12)N,593.15,10,"[1, 6, 7]",3,True,CHN,aromatic
9159,4-cyclohexylbutanoic acid,C1CCC(CC1)CCCC(=O)O,593.46,10,"[1, 6, 8]",3,True,CHO,alcohol
9160,"dispiro[3.1.36.14]decane-5,10-dione",C1CC2(C1)C(=O)C3(C2=O)CCC3,593.68,10,"[1, 6, 8]",3,True,CHO,ketone
9161,bis(2-methoxyethyl) (Z)-but-2-enedioate,COCCOC(=O)/C=C\C(=O)OCCOC,593.84,10,"[1, 6, 8]",3,True,CHO,ester
9162,ethyl 4-acetyl-5-oxohexanoate,CCOC(=O)CCC(C(=O)C)C(=O)C,593.92,10,"[1, 6, 8]",3,True,CHO,ester
9163,ethyl 2-acetyl-5-oxohexanoate,CCOC(=O)C(CCC(=O)C)C(=O)C,593.92,10,"[1, 6, 8]",3,True,CHO,ester
9164,4-prop-1-en-2-ylcyclohexene-1-carboxylic acid,CC(=C)C1CCC(=CC1)C(=O)O,594.16,10,"[1, 6, 8]",3,True,CHO,alkene
9165,2-(2-methylprop-2-enoyloxy)ethyl 3-oxobutanoate,CC(=C)C(=O)OCCOC(=O)CC(=O)C,595.27,10,"[1, 6, 8]",3,True,CHO,ester
9166,4-methylbicyclo[2.2.2]octane-1-carboxylic acid,CC12CCC(CC1)(CC2)C(=O)O,596.41,10,"[1, 6, 8]",3,True,CHO,alcohol
9167,1-heptoxy-3-hydroxypropan-2-one,CCCCCCCOCC(=O)CO,596.87,10,"[1, 6, 8]",3,True,CHO,ester
9168,"2-hydroxy-2,6,6-trimethylbicyclo[3.1.1]heptan-3-one",CC1(C2CC1C(C(=O)C2)(C)O)C,597.29,10,"[1, 6, 8]",3,True,CHO,alcohol
9169,"3-hydroxy-4,7,7-trimethylbicyclo[2.2.1]heptan-2-one",CC1(C2CCC1(C(C2=O)O)C)C,597.29,10,"[1, 6, 8]",3,True,CHO,alcohol
9170,(3-butoxy-2-hydroxypropyl) prop-2-enoate,CCCCOCC(COC(=O)C=C)O,597.46,10,"[1, 6, 8]",3,True,CHO,ester
9171,3-cyclohexylbut-2-enoic acid,CC(=CC(=O)O)C1CCCCC1,597.5,10,"[1, 6, 8]",3,True,CHO,alkene
9172,(2-butoxy-2-hydroxybutyl) acetate,CCCCOC(CC)(COC(=O)C)O,597.99,10,"[1, 6, 8]",3,True,CHO,ester
9173,"ethyl 6-methyl-2,4-dioxohept-5-enoate",CCOC(=O)C(=O)CC(=O)C=C(C)C,598.4,10,"[1, 6, 8]",3,True,CHO,ester
9174,"5,5-dimethylcyclohepta-1,3,6-triene-1-carboxylic acid",CC1(C=CC=C(C=C1)C(=O)O)C,600.43,10,"[1, 6, 8]",3,True,CHO,alkene
9175,butyl 2-butoxy-2-hydroxyacetate,CCCCOC(C(=O)OCCCC)O,600.78,10,"[1, 6, 8]",3,True,CHO,ester
9176,"10-hydroxytricyclo[4.2.1.12,5]deca-3,7-dien-9-one",C1=CC2C3C=CC(C1C2O)C3=O,601.87,10,"[1, 6, 8]",3,True,CHO,alkene
9177,"2,6-dimethylocta-1,7-diene-3,6-diol",CC(=C)C(CCC(C)(C=C)O)O,602.33,10,"[1, 6, 8]",3,True,CHO,alkene
9178,"2,6-dimethyloct-7-ene-2,6-diol",CC(C)(CCCC(C)(C=C)O)O,602.98,10,"[1, 6, 8]",3,True,CHO,alkene
9179,2-(1-hydroxypentyl)cyclopentan-1-one,CCCCC(C1CCCC1=O)O,603.24,10,"[1, 6, 8]",3,True,CHO,alcohol
9180,"cyclodecane-1,6-dione",C1CCC(=O)CCCCC(=O)C1,605.34,10,"[1, 6, 8]",3,True,CHO,ketone
9181,ethyl 4-oxo-4-(5-oxooxolan-3-yl)butanoate,CCOC(=O)CCC(=O)C1CC(=O)OC1,605.45,10,"[1, 6, 8]",3,True,CHO,ester
9182,"2,7-dimethyloctane-2,7-diol",CC(C)(CCCCC(C)(C)O)O,606.3,10,"[1, 6, 8]",3,True,CHO,alcohol
9183,"2,3,5,6-tetramethylcyclohexa-2,5-diene-1,4-dione",CC1=C(C(=O)C(=C(C1=O)C)C)C,606.5,10,"[1, 6, 8]",3,True,CHO,alkene
9184,3-methyl-3-(4-methylpent-3-enyl)oxirane-2-carboxylic acid,CC(=CCCC1(C(O1)C(=O)O)C)C,607.21,10,"[1, 6, 8]",3,True,CHO,carboxylic_acid
9185,"1-(3-hydroxy-2,2,5,5-tetramethyloxolan-3-yl)ethanone",CC(=O)C1(CC(OC1(C)C)(C)C)O,608.06,10,"[1, 6, 8]",3,True,CHO,ester
9186,"2,3-bis(oxiran-2-ylmethoxy)-1,4-dioxane",C1COC(C(O1)OCC2CO2)OCC3CO3,609.4,10,"[1, 6, 8]",3,True,CHO,ester
9187,2-[2-[2-(2-ethoxyethoxy)ethoxy]ethoxy]ethanol,CCOCCOCCOCCOCCO,610.26,10,"[1, 6, 8]",3,True,CHO,ester
9188,"3,3,6,6-tetramethyloxepane-4,5-dione",CC1(COCC(C(=O)C1=O)(C)C)C,610.62,10,"[1, 6, 8]",3,True,CHO,ester
9189,"1-cyclohexylpyrrole-2,5-dione",C1CCC(CC1)N2C(=O)C=CC2=O,610.87,10,"[1, 6, 7, 8]",4,True,CHON,amide
9190,"1-cyclohexylpyrrolidine-2,5-dione",C1CCC(CC1)N2C(=O)CCC2=O,611.71,10,"[1, 6, 7, 8]",4,True,CHON,amide
9191,"5,6,7,8-tetrahydronaphthalene-1,4-dione",C1CCC2=C(C1)C(=O)C=CC2=O,612.22,10,"[1, 6, 8]",3,True,CHO,alkene
9192,"decane-1,3-diol",CCCCCCCC(CCO)O,612.32,10,"[1, 6, 8]",3,True,CHO,alcohol
9193,"2-hexylbutane-1,4-diol",CCCCCCC(CCO)CO,612.32,10,"[1, 6, 8]",3,True,CHO,alcohol
9194,"1,2,8,9-tetrazatricyclo[8.4.0.03,8]tetradeca-2,4,6,9,11,13-hexaene",C1=CC2=NN3C=CC=CC3=NN2C=C1,612.64,10,"[1, 6, 7]",3,True,CHN,alkene
9195,1-[4-(2-aminopropyl)piperazin-1-yl]propan-2-amine,CC(CN1CCN(CC1)CC(C)N)N,613.14,10,"[1, 6, 7]",3,True,CHN,amine
9196,"1,3,3-trimethyl-5-oxocyclohexane-1-carbonitrile",CC1(CC(=O)CC(C1)(C)C#N)C,613.66,10,"[1, 6, 7, 8]",4,True,CHON,ketone
9197,"3-amino-1,2,3,4,4a,5,6,7,8,8a-decahydronaphthalen-2-ol",C1CCC2CC(C(CC2C1)N)O,614.33,10,"[1, 6, 7, 8]",4,True,CHON,alcohol
9198,"2-methoxy-3,5,5-trimethylcyclohex-2-ene-1,4-dione",CC1=C(C(=O)CC(C1=O)(C)C)OC,615.37,10,"[1, 6, 8]",3,True,CHO,ester
9199,"3,5-diethyl-4-iminocyclohexa-2,5-dien-1-one",CCC1=CC(=O)C=C(C1=N)CC,615.66,10,"[1, 6, 7, 8]",4,True,CHON,alkene
9200,2-[(Z)-but-2-enyl]-4-hydroxy-3-methylcyclopent-2-en-1-one,C/C=C\CC1=C(C(CC1=O)O)C,616.96,10,"[1, 6, 8]",3,True,CHO,alkene
9201,ethyl 2-(oxepin-2-ylamino)oxyacetate,CCOC(=O)CONC1=CC=CC=CO1,617.11,10,"[1, 6, 7, 8]",4,True,CHON,ester
9202,(NE)-N-[(4-prop-1-en-2-ylcyclohexen-1-yl)methylidene]hydroxylamine,CC(=C)C1CCC(=CC1)/C=N/O,617.51,10,"[1, 6, 7, 8]",4,True,CHON,alkene
9203,4-methoxybicyclo[2.2.2]octane-1-carboxylic acid,COC12CCC(CC1)(CC2)C(=O)O,618.83,10,"[1, 6, 8]",3,True,CHO,carboxylic_acid
9204,4-cyclohexyl-3-hydroxy-2H-furan-5-one,C1CCC(CC1)C2=C(COC2=O)O,618.88,10,"[1, 6, 8]",3,True,CHO,ester
9205,"7-hydroxy-3,7-dimethyloctanenitrile",CC(CCCC(C)(C)O)CC#N,618.99,10,"[1, 6, 7, 8]",4,True,CHON,alcohol
9206,"1-methyl-4-prop-1-en-2-ylcyclohexane-1,2-diol",CC(=C)C1CCC(C(C1)O)(C)O,619.77,10,"[1, 6, 8]",3,True,CHO,alkene
9207,1-[2-acetyloxypropyl(nitroso)amino]propan-2-yl acetate,CC(CN(CC(C)OC(=O)C)N=O)OC(=O)C,619.8,10,"[1, 6, 7, 8]",4,True,CHON,ester
9208,(NE)-N-(2-methyl-5-prop-1-en-2-ylcyclohex-2-en-1-ylidene)hydroxylamine,CC\1=CCC(C/C1=N\O)C(=C)C,619.99,10,"[1, 6, 7, 8]",4,True,CHON,alkene
9209,"tricyclo[6.2.0.03,6]deca-1(8),3(6)-diene-2,7-dione",C1CC2=C1C(=O)C3=C(C2=O)CC3,620.78,10,"[1, 6, 8]",3,True,CHO,alkene
9210,"dec-5-yne-4,7-diol",CCCC(C#CC(CCC)O)O,620.88,10,"[1, 6, 8]",3,True,CHO,alkyne
9211,"1-methyl-4-propan-2-ylcyclohexane-1,3-diol",CC(C)C1CCC(CC1O)(C)O,622.77,10,"[1, 6, 8]",3,True,CHO,alcohol
9212,"1-methyl-4-propan-2-ylcyclohexane-1,2-diol",CC(C)C1CCC(C(C1)O)(C)O,622.77,10,"[1, 6, 8]",3,True,CHO,alcohol
9213,"2,7-dimethylocta-3,5-diyne-2,7-diol",CC(C)(C#CC#CC(C)(C)O)O,624.3,10,"[1, 6, 8]",3,True,CHO,alkyne
9214,4-(2-hydroxypropan-2-yl)-1-methylcyclohexan-1-ol,CC1(CCC(CC1)C(C)(C)O)O,624.65,10,"[1, 6, 8]",3,True,CHO,alcohol
9215,"2,2-dimethyl-5-pyrrolidin-2-ylidene-1,3-dioxane-4,6-dione",CC1(OC(=O)C(=C2CCCN2)C(=O)O1)C,625.17,10,"[1, 6, 7, 8]",4,True,CHON,ester
9216,2-[hexyl(2-hydroxyethyl)amino]ethanol,CCCCCCN(CCO)CCO,625.2,10,"[1, 6, 7, 8]",4,True,CHON,alcohol
9217,"(NE)-N-[(2,6,6-trimethylcyclohexa-1,3-dien-1-yl)methylidene]hydroxylamine",CC1=C(C(CC=C1)(C)C)/C=N/O,625.33,10,"[1, 6, 7, 8]",4,True,CHON,alkene
9218,"2-N-[2-(2-methylpiperazin-1-yl)ethyl]propane-1,2-diamine",CC1CNCCN1CCNC(C)CN,626.93,10,"[1, 6, 7]",3,True,CHN,amine
9219,"1-N-[2-(2-methylpiperazin-1-yl)ethyl]propane-1,2-diamine",CC1CNCCN1CCNCC(C)N,626.93,10,"[1, 6, 7]",3,True,CHN,amine