,Name,SMILES,Tb,C Atom,Atom,Count Unique Atom,Pass Screen,Atom2,Func. Group
9397,1H-perimidin-2-amine,C1=CC2=C3C(=C1)NC(=NC3=CC=C2)N,444.65,11,"[1, 6, 7]",3,True,CHN,aromatic
9398,"4-buta-1,3-dien-2-yl-1-methylcyclohexene",CC1=CCC(CC1)C(=C)C=C,445.15,11,"[1, 6]",2,True,CH,alkene
9399,"2,3,5,5-tetramethylheptane",CCC(C)(C)CC(C)C(C)C,445.15,11,"[1, 6]",2,True,CH,alkane
9400,"2,2-dimethyl-3-propan-2-ylhexane",CCCC(C(C)C)C(C)(C)C,445.15,11,"[1, 6]",2,True,CH,alkane
9401,2-methyl-4-propan-2-ylheptane,CCCC(CC(C)C)C(C)C,445.15,11,"[1, 6]",2,True,CH,alkane
9402,"2,5,5-trimethyloctane",CCCC(C)(C)CCC(C)C,445.15,11,"[1, 6]",2,True,CH,alkane
9403,"5-ethyl-2,2-dimethylheptane",CCC(CC)CCC(C)(C)C,445.15,11,"[1, 6]",2,True,CH,alkane
9404,2-methyl-3-propan-2-ylheptane,CCCCC(C(C)C)C(C)C,446.0,11,"[1, 6]",2,True,CH,alkane
9405,4-tert-butylheptane,CCCC(CCC)C(C)(C)C,447.15,11,"[1, 6]",2,True,CH,alkane
9406,"2,2,3,5-tetramethylheptane",CCC(C)CC(C)C(C)(C)C,447.15,11,"[1, 6]",2,True,CH,alkane
9407,"2,4,4,5-tetramethylheptane",CCC(C)C(C)(C)CC(C)C,447.15,11,"[1, 6]",2,True,CH,alkane
9408,"2,2,3,4,5-pentamethylhexane",CC(C)C(C)C(C)C(C)(C)C,447.15,11,"[1, 6]",2,True,CH,alkane
9409,2-methyl-4-propylheptane,CCCC(CCC)CC(C)C,447.15,11,"[1, 6]",2,True,CH,alkane
9410,"2,2,6-trimethyloctane",CCC(C)CCCC(C)(C)C,447.15,11,"[1, 6]",2,True,CH,alkane
9411,"2,4,6-trimethyloctane",CCC(C)CC(C)CC(C)C,447.15,11,"[1, 6]",2,True,CH,alkane
9412,"3,3,5-trimethyloctane",CCCC(C)CC(C)(C)CC,447.15,11,"[1, 6]",2,True,CH,alkane
9413,4-methyldec-1-ene,CCCCCCC(C)CC=C,447.52,11,"[1, 6]",2,True,CH,alkene
9414,8-methyldec-1-ene,CCC(C)CCCCCC=C,447.52,11,"[1, 6]",2,True,CH,alkene
9415,"spiro[cyclopropane-1,9'-pentacyclo[4.3.0.02,4.03,8.05,7]nonane]",C1CC12C3C4C5C4C2C6C5C63,448.06,11,"[1, 6]",2,True,CH,alkane
9416,dimethyl nonanedioate,COC(=O)CCCCCCCC(=O)OC,448.15,11,"[1, 6, 8]",3,True,CHO,ester
9417,"2,3,5,6-tetramethylheptane",CC(C)C(C)CC(C)C(C)C,448.15,11,"[1, 6]",2,True,CH,alkane
9418,"4-ethyl-2,5-dimethylheptane",CCC(C)C(CC)CC(C)C,448.15,11,"[1, 6]",2,True,CH,alkane
9419,"5-ethyl-3,3-dimethylheptane",CCC(CC)CC(C)(C)CC,448.15,11,"[1, 6]",2,True,CH,alkane
9420,"2,3,3,6-tetramethylheptane",CC(C)CCC(C)(C)C(C)C,448.15,11,"[1, 6]",2,True,CH,alkane
9421,"2,4-dimethyl-3-propan-2-ylhexane",CCC(C)C(C(C)C)C(C)C,448.15,11,"[1, 6]",2,True,CH,alkane
9422,"3-ethyl-2,2,4-trimethylhexane",CCC(C)C(CC)C(C)(C)C,448.15,11,"[1, 6]",2,True,CH,alkane
9423,"2,2,4,4,5-pentamethylhexane",CC(C)C(C)(C)CC(C)(C)C,449.15,11,"[1, 6]",2,True,CH,alkane
9424,"5-ethyl-2,4-dimethylheptane",CCC(CC)C(C)CC(C)C,449.15,11,"[1, 6]",2,True,CH,alkane
9425,"3-ethyl-2,5-dimethylheptane",CCC(C)CC(CC)C(C)C,449.15,11,"[1, 6]",2,True,CH,alkane
9426,"3-ethyl-2,6-dimethylheptane",CCC(CCC(C)C)C(C)C,449.15,11,"[1, 6]",2,True,CH,alkane
9427,"3-ethyl-4,4-dimethylheptane",CCCC(C)(C)C(CC)CC,449.15,11,"[1, 6]",2,True,CH,alkane
9428,"2,2,3,4-tetramethylheptane",CCCC(C)C(C)C(C)(C)C,449.15,11,"[1, 6]",2,True,CH,alkane
9429,"2,3,3,5-tetramethylheptane",CCC(C)CC(C)(C)C(C)C,449.15,11,"[1, 6]",2,True,CH,alkane
9430,"2,4,5,5-tetramethylheptane",CCC(C)(C)C(C)CC(C)C,449.15,11,"[1, 6]",2,True,CH,alkane
9431,"4-ethyl-2,2,3-trimethylhexane",CCC(CC)C(C)C(C)(C)C,449.15,11,"[1, 6]",2,True,CH,alkane
9432,"3-ethyl-2,3,5-trimethylhexane",CCC(C)(CC(C)C)C(C)C,449.15,11,"[1, 6]",2,True,CH,alkane
9433,"3-ethyl-2,2-dimethylheptane",CCCCC(CC)C(C)(C)C,449.15,11,"[1, 6]",2,True,CH,alkane
9434,5-ethyl-3-methyloctane,CCCC(CC)CC(C)CC,449.15,11,"[1, 6]",2,True,CH,alkane
9435,"2,4,5-trimethyloctane",CCCC(C)C(C)CC(C)C,449.15,11,"[1, 6]",2,True,CH,alkane
9436,"5,5-dimethylnonane",CCCCC(C)(C)CCCC,450.15,11,"[1, 6]",2,True,CH,alkane
9437,"3-ethyl-2,4,5-trimethylhexane",CCC(C(C)C)C(C)C(C)C,450.15,11,"[1, 6]",2,True,CH,alkane
9438,3-methyl-4-propan-2-ylheptane,CCCC(C(C)C)C(C)CC,450.15,11,"[1, 6]",2,True,CH,alkane
9439,"2,3,5-trimethyloctane",CCCC(C)CC(C)C(C)C,450.15,11,"[1, 6]",2,True,CH,alkane
9440,"3,3,6-trimethyloctane",CCC(C)CCC(C)(C)CC,450.15,11,"[1, 6]",2,True,CH,alkane
9441,"4,4-dimethylnonane",CCCCCC(C)(C)CCC,451.15,11,"[1, 6]",2,True,CH,alkane
9442,4-methyl-4-propylheptane,CCCC(C)(CCC)CCC,451.15,11,"[1, 6]",2,True,CH,alkane
9443,"2,4-dimethylnonane",CCCCCC(C)CC(C)C,451.15,11,"[1, 6]",2,True,CH,alkane
9444,"5-ethyl-2,3-dimethylheptane",CCC(CC)CC(C)C(C)C,451.15,11,"[1, 6]",2,True,CH,alkane
9445,"5-ethyl-2,5-dimethylheptane",CCC(C)(CC)CCC(C)C,451.15,11,"[1, 6]",2,True,CH,alkane
9446,"2,3,4,4-tetramethylheptane",CCCC(C)(C)C(C)C(C)C,451.15,11,"[1, 6]",2,True,CH,alkane
9447,"4-ethyl-2,2,4-trimethylhexane",CCC(C)(CC)CC(C)(C)C,451.15,11,"[1, 6]",2,True,CH,alkane
9448,"3-ethyl-2,4,4-trimethylhexane",CCC(C(C)C)C(C)(C)CC,451.15,11,"[1, 6]",2,True,CH,alkane
9449,"2,5,6-trimethyloctane",CCC(C)C(C)CCC(C)C,451.15,11,"[1, 6]",2,True,CH,alkane
9450,4-propan-2-yloctane,CCCCC(CCC)C(C)C,451.15,11,"[1, 6]",2,True,CH,alkane
9451,5-ethyl-2-methyloctane,CCCC(CC)CCC(C)C,451.15,11,"[1, 6]",2,True,CH,alkane
9452,"4,6-dimethylnonane",CCCC(C)CC(C)CCC,452.15,11,"[1, 6]",2,True,CH,alkane
9453,"2,5-dimethylnonane",CCCCC(C)CCC(C)C,452.15,11,"[1, 6]",2,True,CH,alkane
9454,"2,6-dimethylnonane",CCCC(C)CCCC(C)C,452.15,11,"[1, 6]",2,True,CH,alkane
9455,"4-ethyl-2,3-dimethylheptane",CCCC(CC)C(C)C(C)C,452.15,11,"[1, 6]",2,True,CH,alkane
9456,"3-ethyl-2,4-dimethylheptane",CCCC(C)C(CC)C(C)C,452.15,11,"[1, 6]",2,True,CH,alkane
9457,"2,3,4,5-tetramethylheptane",CCC(C)C(C)C(C)C(C)C,452.15,11,"[1, 6]",2,True,CH,alkane
9458,"3,4-diethyl-2-methylhexane",CCC(CC)C(CC)C(C)C,452.15,11,"[1, 6]",2,True,CH,alkane
9459,"4,4-diethyl-2-methylhexane",CCC(CC)(CC)CC(C)C,452.15,11,"[1, 6]",2,True,CH,alkane
9460,3-methyl-4-propylheptane,CCCC(CCC)C(C)CC,452.15,11,"[1, 6]",2,True,CH,alkane
9461,"3,5-diethylheptane",CCC(CC)CC(CC)CC,452.15,11,"[1, 6]",2,True,CH,alkane
9462,"2,2,3-trimethyloctane",CCCCCC(C)C(C)(C)C,452.15,11,"[1, 6]",2,True,CH,alkane
9463,"2,3,7-trimethyloctane",CC(C)CCCC(C)C(C)C,452.15,11,"[1, 6]",2,True,CH,alkane
9464,"3,4,6-trimethyloctane",CCC(C)CC(C)C(C)CC,452.15,11,"[1, 6]",2,True,CH,alkane
9465,5-ethylnonane,CCCCC(CC)CCCC,453.15,11,"[1, 6]",2,True,CH,alkane
9466,4-ethyl-4-methyloctane,CCCCC(C)(CC)CCC,453.15,11,"[1, 6]",2,True,CH,alkane
9467,"3,5-dimethylnonane",CCCCC(C)CC(C)CC,453.15,11,"[1, 6]",2,True,CH,alkane
9468,"2,7-dimethylnonane",CCC(C)CCCCC(C)C,453.15,11,"[1, 6]",2,True,CH,alkane
9469,"3-ethyl-2,3-dimethylheptane",CCCCC(C)(CC)C(C)C,453.15,11,"[1, 6]",2,True,CH,alkane
9470,"4-ethyl-3,3-dimethylheptane",CCCC(CC)C(C)(C)CC,453.15,11,"[1, 6]",2,True,CH,alkane
9471,"3-ethyl-3,5-dimethylheptane",CCC(C)CC(C)(CC)CC,453.15,11,"[1, 6]",2,True,CH,alkane
9472,"3,3,5,5-tetramethylheptane",CCC(C)(C)CC(C)(C)CC,453.15,11,"[1, 6]",2,True,CH,alkane
9473,"2,3-dimethyl-3-propan-2-ylhexane",CCCC(C)(C(C)C)C(C)C,453.15,11,"[1, 6]",2,True,CH,alkane
9474,"3-ethyl-2,2,3-trimethylhexane",CCCC(C)(CC)C(C)(C)C,453.15,11,"[1, 6]",2,True,CH,alkane
9475,"4-ethyl-2,3,4-trimethylhexane",CCC(C)(CC)C(C)C(C)C,453.15,11,"[1, 6]",2,True,CH,alkane
9476,"4,4,5-trimethyloctane",CCCC(C)C(C)(C)CCC,453.15,11,"[1, 6]",2,True,CH,alkane
9477,4-methyl-4-propan-2-ylheptane,CCCC(C)(CCC)C(C)C,453.15,11,"[1, 6]",2,True,CH,alkane
9478,"3,4-diethylheptane",CCCC(CC)C(CC)CC,453.15,11,"[1, 6]",2,True,CH,alkane
9479,4-ethyl-5-methyloctane,CCCC(C)C(CC)CCC,453.15,11,"[1, 6]",2,True,CH,alkane
9480,3-ethyl-5-methyloctane,CCCC(C)CC(CC)CC,453.15,11,"[1, 6]",2,True,CH,alkane
9481,"2,3,4-trimethyloctane",CCCCC(C)C(C)C(C)C,453.15,11,"[1, 6]",2,True,CH,alkane
9482,"2,3,6-trimethyloctane",CCC(C)CCC(C)C(C)C,453.15,11,"[1, 6]",2,True,CH,alkane
9483,"2-hexyl-1,1-dimethylcyclopropane",CCCCCCC1CC1(C)C,453.59,11,"[1, 6]",2,True,CH,alkane
9484,N-butyl-N-prop-2-ynylbutan-1-amine,CCCCN(CCCC)CC#C,453.84,11,"[1, 6, 7]",3,True,CHN,alkyne
9485,"pentacyclo[5.4.0.02,6.03,10.05,9]undecane",C1C2C3CC4C1C5C2CC3C45,453.89,11,"[1, 6]",2,True,CH,alkane
9486,3-(1H-indol-3-yl)propanenitrile,C1=CC=C2C(=C1)C(=CN2)CCC#N,454.15,11,"[1, 6, 7]",3,True,CHN,aromatic
9487,"2,3,3,4,5-pentamethylhexane",CC(C)C(C)C(C)(C)C(C)C,454.15,11,"[1, 6]",2,True,CH,alkane
9488,"4-ethyl-3,5-dimethylheptane",CCC(C)C(CC)C(C)CC,454.15,11,"[1, 6]",2,True,CH,alkane
9489,"3,3,4,5-tetramethylheptane",CCC(C)C(C)C(C)(C)CC,454.15,11,"[1, 6]",2,True,CH,alkane
9490,"3,4,4-trimethyloctane",CCCCC(C)(C)C(C)CC,454.15,11,"[1, 6]",2,True,CH,alkane
9491,"3,4,5-trimethyloctane",CCCC(C)C(C)C(C)CC,454.15,11,"[1, 6]",2,True,CH,alkane
9492,butyl 2-aminobenzoate,CCCCOC(=O)C1=CC=CC=C1N,455.15,11,"[1, 6, 7, 8]",4,True,CHON,ester
9493,"3,3-dimethylnonane",CCCCCCC(C)(C)CC,455.15,11,"[1, 6]",2,True,CH,alkane
9494,"4,5-dimethylnonane",CCCCC(C)C(C)CCC,455.15,11,"[1, 6]",2,True,CH,alkane
9495,"3,6-dimethylnonane",CCCC(C)CCC(C)CC,455.15,11,"[1, 6]",2,True,CH,alkane
9496,4-pentoxyaniline,CCCCCOC1=CC=C(C=C1)N,455.15,11,"[1, 6, 7, 8]",4,True,CHON,ester
9497,"3-ethyl-4,5-dimethylheptane",CCC(C)C(C)C(CC)CC,455.15,11,"[1, 6]",2,True,CH,alkane
9498,"2,3,3,4-tetramethylheptane",CCCC(C)C(C)(C)C(C)C,455.15,11,"[1, 6]",2,True,CH,alkane
9499,3-ethyl-2-methyloctane,CCCCCC(CC)C(C)C,455.15,11,"[1, 6]",2,True,CH,alkane
9500,6-ethyl-2-methyloctane,CCC(CC)CCCC(C)C,455.15,11,"[1, 6]",2,True,CH,alkane
9501,4-ethyl-3-methyloctane,CCCCC(CC)C(C)CC,455.15,11,"[1, 6]",2,True,CH,alkane
9502,3-ethyl-6-methyloctane,CCC(C)CCC(CC)CC,455.15,11,"[1, 6]",2,True,CH,alkane
9503,"2,3,3-trimethyloctane",CCCCCC(C)(C)C(C)C,455.15,11,"[1, 6]",2,True,CH,alkane
9504,"3,3,4-trimethyloctane",CCCCC(C)C(C)(C)CC,455.15,11,"[1, 6]",2,True,CH,alkane
9505,"3,4-diethylhept-3-ene",CCCC(=C(CC)CC)CC,455.2,11,"[1, 6]",2,True,CH,alkene
9506,undec-4-ene,CCCCCCC=CCCC,455.44,11,"[1, 6]",2,True,CH,alkene
9507,1-(4-hydroxyphenyl)pentan-1-one,CCCCC(=O)C1=CC=C(C=C1)O,455.65,11,"[1, 6, 8]",3,True,CHO,ketone
9508,"(3E)-4,8-dimethylnona-1,3,7-triene",CC(=CCC/C(=C/C=C)/C)C,456.04,11,"[1, 6]",2,True,CH,alkene
9509,"2,8-dimethylnonane",CC(C)CCCCCC(C)C,456.15,11,"[1, 6]",2,True,CH,alkane
9510,"4-ethyl-2,3,3-trimethylhexane",CCC(CC)C(C)(C)C(C)C,456.15,11,"[1, 6]",2,True,CH,alkane
9511,3-ethyl-4-methyloctane,CCCCC(C)C(CC)CC,456.15,11,"[1, 6]",2,True,CH,alkane
9512,"(3E,5E)-undeca-1,3,5-triene",CCCCC/C=C/C=C/C=C,456.28,11,"[1, 6]",2,True,CH,alkene
9513,undec-1-en-3-yne,CCCCCCCC#CC=C,456.96,11,"[1, 6]",2,True,CH,alkene
9514,"3,3-dimethylnon-4-yne",CCCCC#CC(C)(C)CC,457.05,11,"[1, 6]",2,True,CH,alkyne
9515,4-ethylnonane,CCCCCC(CC)CCC,457.15,11,"[1, 6]",2,True,CH,alkane
9516,"3,7-dimethylnonane",CCC(C)CCCC(C)CC,457.15,11,"[1, 6]",2,True,CH,alkane
9517,"3,3,4,4-tetramethylheptane",CCCC(C)(C)C(C)(C)CC,457.15,11,"[1, 6]",2,True,CH,alkane
9518,"2,2,3,3,4-pentamethylhexane",CCC(C)C(C)(C)C(C)(C)C,457.15,11,"[1, 6]",2,True,CH,alkane
9519,"3,3-dimethyl-8-methylidenetricyclo[3.2.1.02,4]octane",CC1(C2C1C3CCC2C3=C)C,457.29,11,"[1, 6]",2,True,CH,alkene
9520,octylcyclopropane,CCCCCCCCC1CC1,458.02,11,"[1, 6]",2,True,CH,alkane
9521,"3,4-dimethylnonane",CCCCCC(C)C(C)CC,458.15,11,"[1, 6]",2,True,CH,alkane
9522,"3-ethyl-3,4-dimethylheptane",CCCC(C)C(C)(CC)CC,458.15,11,"[1, 6]",2,True,CH,alkane
9523,"3,4,4,5-tetramethylheptane",CCC(C)C(C)(C)C(C)CC,458.15,11,"[1, 6]",2,True,CH,alkane
9524,5-methyldecane,CCCCCC(C)CCCC,459.15,11,"[1, 6]",2,True,CH,alkane
9525,"3,3-diethyl-2-methylhexane",CCCC(CC)(CC)C(C)C,459.15,11,"[1, 6]",2,True,CH,alkane
9526,"3,4-diethyl-3-methylhexane",CCC(CC)C(C)(CC)CC,459.15,11,"[1, 6]",2,True,CH,alkane
9527,"2,2,3,4,4-pentamethylhexane",CCC(C)(C)C(C)C(C)(C)C,459.15,11,"[1, 6]",2,True,CH,alkane
9528,"2,3,4-trimethyl-3-propan-2-ylpentane",CC(C)C(C)(C(C)C)C(C)C,459.15,11,"[1, 6]",2,True,CH,alkane
9529,"3-ethyl-2,2,3,4-tetramethylpentane",CCC(C)(C(C)C)C(C)(C)C,459.15,11,"[1, 6]",2,True,CH,alkane
9530,2-phenylethyl 3-hydroxypropanoate,C1=CC=C(C=C1)CCOC(=O)CCO,460.15,11,"[1, 6, 8]",3,True,CHO,ester
9531,"3-ethyl-2,3,4-trimethylhexane",CCC(C)C(C)(CC)C(C)C,460.15,11,"[1, 6]",2,True,CH,alkane
9532,"2,3,3,4,4-pentamethylhexane",CCC(C)(C)C(C)(C)C(C)C,460.15,11,"[1, 6]",2,True,CH,alkane
9533,"(3E,5Z,8Z)-undeca-1,3,5,8-tetraene",CC/C=C\C/C=C\C=C\C=C,460.44,11,"[1, 6]",2,True,CH,alkene
9534,1-tert-butyl-4-methylcyclohexane,CC1CCC(CC1)C(C)(C)C,460.88,11,"[1, 6]",2,True,CH,alkane
9535,3-ethylnonane,CCCCCCC(CC)CC,461.15,11,"[1, 6]",2,True,CH,alkane
9536,3-indol-1-ylpropanoic acid,C1=CC=C2C(=C1)C=CN2CCC(=O)O,461.65,11,"[1, 6, 7, 8]",4,True,CHON,aromatic
9537,"3,3-diethyl-2,2-dimethylpentane",CCC(CC)(CC)C(C)(C)C,462.15,11,"[1, 6]",2,True,CH,alkane
9538,"3,3-diethyl-2,4-dimethylpentane",CCC(CC)(C(C)C)C(C)C,462.15,11,"[1, 6]",2,True,CH,alkane
9539,"1,2-diethylspiro[2.4]hepta-4,6-diene",CCC1C(C12C=CC=C2)CC,462.92,11,"[1, 6]",2,True,CH,alkene
9540,3-methylbut-2-en-2-ylbenzene,CC(=C(C)C1=CC=CC=C1)C,463.15,11,"[1, 6]",2,True,CH,alkene
9541,(E)-1-[1-[(E)-but-2-enoxy]propoxy]but-2-ene,CCC(OC/C=C/C)OC/C=C/C,463.15,11,"[1, 6, 8]",3,True,CHO,ester
9542,"3,3-diethyl-4-methylhexane",CCC(C)C(CC)(CC)CC,463.15,11,"[1, 6]",2,True,CH,alkane
9543,"3-ethyl-3,4,4-trimethylhexane",CCC(C)(C)C(C)(CC)CC,463.15,11,"[1, 6]",2,True,CH,alkane
9544,"7-(1,3-dioxolan-2-ylmethyl)-1,3-dimethylpurine-2,6-dione",CN1C2=C(C(=O)N(C1=O)C)N(C=N2)CC3OCCO3,463.15,11,"[1, 6, 7, 8]",4,True,CHON,ester
9545,5-butylbicyclo[2.2.1]hept-2-ene,CCCCC1CC2CC1C=C2,463.52,11,"[1, 6]",2,True,CH,alkene
9546,"pentacyclo[5.3.1.02,4.02,5.04,9]undecane",C1C2CC3CC1C45C3(C4)C5C2,463.71,11,"[1, 6]",2,True,CH,alkane
9547,N-butyl-N-propylbutan-1-amine,CCCCN(CCC)CCCC,463.72,11,"[1, 6, 7]",3,True,CHN,amine
9548,N-methyl-N-pentylpentan-1-amine,CCCCCN(C)CCCCC,463.72,11,"[1, 6, 7]",3,True,CHN,amine
9549,2-methyldec-1-ene,CCCCCCCCC(=C)C,463.85,11,"[1, 6]",2,True,CH,alkene
9550,"1,7,7-trimethyl-2-methylidenebicyclo[2.2.1]heptane",CC1(C2CCC1(C(=C)C2)C)C,464.0,11,"[1, 6]",2,True,CH,alkene
9551,"8,9-dimethylidenetricyclo[3.2.2.02,4]non-6-ene",C=C1C2C=CC(C1=C)C3C2C3,464.31,11,"[1, 6]",2,True,CH,alkene
9552,"tetracyclo[6.2.1.02,7.03,5]undecane",C1CC2CC1C3C2C4CC4C3,464.63,11,"[1, 6]",2,True,CH,alkane
9553,"tetracyclo[5.3.1.02,5.04,9]undecane",C1C2CC3CC1C4CC3C4C2,464.63,11,"[1, 6]",2,True,CH,alkane
9554,pent-1-en-3-ylbenzene,CCC(C=C)C1=CC=CC=C1,464.65,11,"[1, 6]",2,True,CH,alkene
9555,"6,7-dimethylidenetricyclo[3.2.2.02,4]nonane",C=C1C2CCC(C1=C)C3C2C3,465.15,11,"[1, 6]",2,True,CH,alkene
9556,"5-butan-2-yl-5-ethyl-1-methyl-1,3-diazinane-2,4,6-trione",CCC(C)C1(C(=O)NC(=O)N(C1=O)C)CC,465.65,11,"[1, 6, 7, 8]",4,True,CHON,amide
9557,3-hexylcyclopentene,CCCCCCC1CCC=C1,465.72,11,"[1, 6]",2,True,CH,alkene
9558,2-methyladamantane,CC1C2CC3CC(C2)CC1C3,466.43,11,"[1, 6]",2,True,CH,alkane
9559,"4-methyltricyclo[5.2.1.02,6]decane",CC1CC2C3CCC(C3)C2C1,466.43,11,"[1, 6]",2,True,CH,alkane
9560,"10-methyltricyclo[5.2.1.02,6]decane",CC1C2CCC1C3C2CCC3,466.43,11,"[1, 6]",2,True,CH,alkane
9561,(E)-undec-3-ene,CCCCCCC/C=C/CC,466.65,11,"[1, 6]",2,True,CH,alkene
9562,"7-methoxy-3,7-dimethyloct-1-ene",CC(CCCC(C)(C)OC)C=C,466.71,11,"[1, 6, 8]",3,True,CHO,ester
9563,1-tert-butyl-4-methylidenecyclohexane,CC(C)(C)C1CCC(=C)CC1,466.76,11,"[1, 6]",2,True,CH,alkene
9564,2-(5-methoxy-1H-indol-3-yl)ethanol,COC1=CC2=C(C=C1)NC=C2CCO,467.15,11,"[1, 6, 7, 8]",4,True,CHON,ester
9565,"2,2,3,3,4,4-hexamethylpentane",CC(C)(C)C(C)(C)C(C)(C)C,467.15,11,"[1, 6]",2,True,CH,alkane
9566,"4-ethyl-2-methyl-2-(3-methylbutyl)-1,3-oxazolidine",CCC1COC(N1)(C)CCC(C)C,467.15,11,"[1, 6, 7, 8]",4,True,CHON,ester
9567,5-propan-2-ylbicyclo[2.2.2]oct-2-ene,CC(C)C1CC2CCC1C=C2,467.35,11,"[1, 6]",2,True,CH,alkene
9568,"8-propan-2-ylidenetricyclo[3.2.1.02,4]oct-6-ene",CC(=C1C2C=CC1C3C2C3)C,468.24,11,"[1, 6]",2,True,CH,alkene
9569,"8-propan-2-ylidenetricyclo[3.2.1.02,4]octane",CC(=C1C2CCC1C3C2C3)C,469.08,11,"[1, 6]",2,True,CH,alkene
9570,1-methyl-2-(2-methylpropyl)benzene,CC1=CC=CC=C1CC(C)C,469.15,11,"[1, 6]",2,True,CH,aromatic
9571,1-butan-2-yl-2-methylbenzene,CCC(C)C1=CC=CC=C1C,469.15,11,"[1, 6]",2,True,CH,aromatic
9572,"1,4-dimethyl-2-propan-2-ylbenzene",CC1=CC(=C(C=C1)C)C(C)C,469.35,11,"[1, 6]",2,True,CH,aromatic
9573,3-methyl-3-phenylbutan-2-ol,CC(C(C)(C)C1=CC=CC=C1)O,470.15,11,"[1, 6, 8]",3,True,CHO,aromatic
9574,2-methyl-3-phenylbutan-2-ol,CC(C1=CC=CC=C1)C(C)(C)O,470.15,11,"[1, 6, 8]",3,True,CHO,aromatic
9575,2-methylideneadamantane,C=C1C2CC3CC(C2)CC1C3,470.26,11,"[1, 6]",2,True,CH,alkene
9576,10-methoxydec-1-ene,COCCCCCCCCC=C,470.38,11,"[1, 6, 8]",3,True,CHO,ester
9577,2-methylbutylcyclohexane,CCC(C)CC1CCCCC1,470.39,11,"[1, 6]",2,True,CH,alkane
9578,2-(2-methyl-1H-indol-3-yl)ethanamine,CC1=C(C2=CC=CC=C2N1)CCN,471.15,11,"[1, 6, 7]",3,True,CHN,aromatic
9579,"N,N-diethylheptan-1-amine",CCCCCCCN(CC)CC,471.15,11,"[1, 6, 7]",3,True,CHN,amine
9580,1-methyladamantane,CC12CC3CC(C1)CC(C3)C2,471.34,11,"[1, 6]",2,True,CH,alkane
9581,"3,3,7,7-tetramethylcycloheptyne",CC1(CCCC(C#C1)(C)C)C,471.37,11,"[1, 6]",2,True,CH,alkyne
9582,1-propan-2-yloxyoctane,CCCCCCCCOC(C)C,471.7,11,"[1, 6, 8]",3,True,CHO,ester
9583,pent-1-ynylbenzene,CCCC#CC1=CC=CC=C1,472.15,11,"[1, 6]",2,True,CH,alkyne
9584,"1,3-dimethyl-2-propan-2-ylbenzene",CC1=C(C(=CC=C1)C)C(C)C,472.15,11,"[1, 6]",2,True,CH,aromatic
9585,"N,N,2,3-tetramethylbicyclo[2.2.1]heptan-2-amine",CC1C2CCC(C2)C1(C)N(C)C,472.37,11,"[1, 6, 7]",3,True,CHN,amine
9586,1-hexylcyclopentene,CCCCCCC1=CCCC1,473.15,11,"[1, 6]",2,True,CH,alkene
9587,undec-3-yne,CCCCCCCC#CCC,473.15,11,"[1, 6]",2,True,CH,alkyne
9588,N-(cyclohexylmethyl)-N-methylprop-2-yn-1-amine,CN(CC#C)CC1CCCCC1,473.39,11,"[1, 6, 7]",3,True,CHN,alkyne
9589,"1,2,3,5-tetramethyl-4-methylidenebicyclo[3.1.0]hex-2-ene",CC1=C(C2(CC2(C1=C)C)C)C,473.52,11,"[1, 6]",2,True,CH,alkene
9590,tetraspiro[2.0.0.0.26.15.14.13]undecane,C1CC12CC23CC34CC45CC5,473.53,11,"[1, 6]",2,True,CH,alkane
9591,1-pentoxyhexane,CCCCCCOCCCCC,473.7,11,"[1, 6, 8]",3,True,CHO,ester
9592,[(E)-pent-3-enyl]benzene,C/C=C/CCC1=CC=CC=C1,474.15,11,"[1, 6]",2,True,CH,alkene
9593,"tricyclo[4.3.1.12,5]undec-3-ene",C1CC2CC(C1)C3CC2C=C3,474.53,11,"[1, 6]",2,True,CH,alkene
9594,"2,5-dimethylidenebicyclo[4.2.1]non-7-ene",C=C1CCC(=C)C2CC1C=C2,475.05,11,"[1, 6]",2,True,CH,alkene
9595,[(E)-pent-2-en-2-yl]benzene,CC/C=C(\C)/C1=CC=CC=C1,475.15,11,"[1, 6]",2,True,CH,alkene
9596,"tricyclo[5.2.2.02,6]undecane",C1CC2C3CCC(C2C1)CC3,475.37,11,"[1, 6]",2,True,CH,alkane
9597,"tricyclo[5.3.1.02,6]undecane",C1CC2CC(C1)C3C2CCC3,475.37,11,"[1, 6]",2,True,CH,alkane
9598,"1,2-dicyclopropylethenylcyclopropane",C1CC1C=C(C2CC2)C3CC3,475.54,11,"[1, 6]",2,True,CH,alkene
9599,1-butan-2-yl-4-methylbenzene,CCC(C)C1=CC=C(C=C1)C,475.65,11,"[1, 6]",2,True,CH,aromatic
9600,5-ethynylnonan-5-ol,CCCCC(CCCC)(C#C)O,475.65,11,"[1, 6, 8]",3,True,CHO,alkyne
9601,"2,5-dimethylidenebicyclo[4.2.1]nonane",C=C1CCC(=C)C2CCC1C2,475.89,11,"[1, 6]",2,True,CH,alkene
9602,5-butoxy-5-methylhex-1-en-3-yne,CCCCOC(C)(C)C#CC=C,476.15,11,"[1, 6, 8]",3,True,CHO,ester
9603,"N,N,N',N'-tetraethylpropane-1,3-diamine",CCN(CC)CCCN(CC)CC,476.16,11,"[1, 6, 7]",3,True,CHN,amine
9604,"2-tert-butyl-2-azabicyclo[3.2.1]octa-3,6-diene",CC(C)(C)N1C=CC2CC1C=C2,476.56,11,"[1, 6, 7]",3,True,CHN,alkene
9605,hexyl 2-methylbutanoate,CCCCCCOC(=O)C(C)CC,476.65,11,"[1, 6, 8]",3,True,CHO,ester
9606,"1,1-diethoxyheptane",CCCCCCC(OCC)OCC,477.15,11,"[1, 6, 8]",3,True,CHO,ester
9607,"2-methyl-1,2,3,4,4a,5,6,7,8,8a-decahydronaphthalene",CC1CCC2CCCCC2C1,477.17,11,"[1, 6]",2,True,CH,alkane
9608,1-(aziridin-1-yl)nonan-1-one,CCCCCCCCC(=O)N1CC1,477.35,11,"[1, 6, 7, 8]",4,True,CHON,amide
9609,N-(3-methylbutyl)cyclohexanamine,CC(C)CCNC1CCCCC1,478.15,11,"[1, 6, 7]",3,True,CHN,amine
9610,"2,4-diethyl-1-methylbenzene",CCC1=CC(=C(C=C1)C)CC,478.15,11,"[1, 6]",2,True,CH,aromatic
9611,[2-hydroxy-3-(2-methylprop-2-enoyloxy)propyl] 2-methylprop-2-enoate,CC(=C)C(=O)OCC(COC(=O)C(=C)C)O,478.15,11,"[1, 6, 8]",3,True,CHO,ester
9612,"8a-methyl-2,3,4,4a,5,6,7,8-octahydro-1H-naphthalene",CC12CCCCC1CCCC2,478.15,11,"[1, 6]",2,True,CH,alkane
9613,2-tert-butyl-2-azabicyclo[3.2.1]octane,CC(C)(C)N1CCC2CCC1C2,478.24,11,"[1, 6, 7]",3,True,CHN,amine
9614,"2,2-dimethylpropylidenecyclohexane",CC(C)(C)C=C1CCCCC1,478.91,11,"[1, 6]",2,True,CH,alkene
9615,5-tert-butyl-2-methoxyaniline,CC(C)(C)C1=CC(=C(C=C1)OC)N,479.15,11,"[1, 6, 7, 8]",4,True,CHON,ester