,Name,SMILES,Tb,C Atom,Atom,Count Unique Atom,Pass Screen,Atom2,Func. Group
5716,2-[(E)-hydrazinylidenemethyl]phenol,C1=CC=C(C(=C1)/C=N/N)O,579.46,7,"[1, 6, 7, 8]",4,True,CHON,aromatic
5717,4-[nitroso(propyl)amino]butanoic acid,CCCN(CCCC(=O)O)N=O,581.11,7,"[1, 6, 7, 8]",4,True,CHON,alcohol
5718,3-[butyl(nitroso)amino]propanoic acid,CCCCN(CCC(=O)O)N=O,581.11,7,"[1, 6, 7, 8]",4,True,CHON,alcohol
5719,1-cyclohexyl-1-nitrosourea,C1CCC(CC1)N(C(=O)N)N=O,581.55,7,"[1, 6, 7, 8]",4,True,CHON,amide
5720,2-propan-2-yloxyethyl N-(hydroxymethyl)carbamate,CC(C)OCCOC(=O)NCO,582.31,7,"[1, 6, 7, 8]",4,True,CHON,ester
5721,"3-tert-butylperoxypropane-1,2-diol",CC(C)(C)OOCC(CO)O,585.29,7,"[1, 6, 8]",3,True,CHO,alcohol
5722,"cyclohepta-3,6-diene-1,2,5-trione",C1=CC(=O)C(=O)C=CC1=O,590.03,7,"[1, 6, 8]",3,True,CHO,alkene
5723,"cyclohepta-4,6-diene-1,2,3-trione",C1=CC(=O)C(=O)C(=O)C=C1,590.03,7,"[1, 6, 8]",3,True,CHO,alkene
5724,2-(1-ethoxyethylidene)propanedinitrile,CCOC(=C(C#N)C#N)C,590.26,7,"[1, 6, 7, 8]",4,True,CHON,ester
5725,"3-[(dimethylcarbamoylamino)methyl]-1,1-dimethylurea",CN(C)C(=O)NCNC(=O)N(C)C,592.72,7,"[1, 6, 7, 8]",4,True,CHON,amide
5726,(E)-N-carbamoyl-2-ethylbut-2-enamide,CC/C(=C\C)/C(=O)NC(=O)N,594.24,7,"[1, 6, 7, 8]",4,True,CHON,alkene
5727,2-[(E)-3-methoxyprop-2-enylidene]propanedinitrile,CO/C=C/C=C(C#N)C#N,594.54,7,"[1, 6, 7, 8]",4,True,CHON,ester
5728,2-(tert-butyldiazenyl)propan-2-ol,CC(C)(C)N=NC(C)(C)O,594.68,7,"[1, 6, 7, 8]",4,True,CHON,alcohol
5729,ethyl N-[2-(methylamino)-2-methyliminoethyl]carbamate,CCOC(=O)NCC(=NC)NC,594.88,7,"[1, 6, 7, 8]",4,True,CHON,ester
5730,7-hydroxyheptanoic acid,C(CCCO)CCC(=O)O,597.45,7,"[1, 6, 8]",3,True,CHO,alcohol
5731,1-aminocyclohexane-1-carboxylic acid,C1CCC(CC1)(C(=O)O)N,597.59,7,"[1, 6, 7, 8]",4,True,CHON,carboxylic_acid
5732,"2,3-dihydroxypropyl 2-methylprop-2-enoate",CC(=C)C(=O)OCC(CO)O,598.46,7,"[1, 6, 8]",3,True,CHO,ester
5733,3-[2-(2-hydroxyethoxy)ethoxy]propanenitrile,C(COCCOCCO)C#N,598.86,7,"[1, 6, 7, 8]",4,True,CHON,ester
5734,2-[(E)-hydroxyiminomethyl]phenol,C1=CC=C(C(=C1)/C=N/O)O,599.11,7,"[1, 6, 7, 8]",4,True,CHON,aromatic
5735,4-[(E)-hydroxyiminomethyl]phenol,C1=CC(=CC=C1/C=N/O)O,599.11,7,"[1, 6, 7, 8]",4,True,CHON,aromatic
5736,N-pyridin-3-ylacetamide,CC(=O)NC1=CN=CC=C1,599.65,7,"[1, 6, 7, 8]",4,True,CHON,aromatic
5737,2-hydroxybenzenecarboximidamide,C1=CC=C(C(=C1)C(=N)N)O,601.7,7,"[1, 6, 7, 8]",4,True,CHON,aromatic
5738,"3-morpholin-4-ylpropane-1,2-diol",C1COCCN1CC(CO)O,603.02,7,"[1, 6, 7, 8]",4,True,CHON,ester
5739,2-formamido-4-methylpentanoic acid,CC(C)CC(C(=O)O)NC=O,603.22,7,"[1, 6, 7, 8]",4,True,CHON,carboxylic_acid
5740,2-(propan-2-ylideneamino)oxybutanoic acid,CCC(C(=O)O)ON=C(C)C,603.81,7,"[1, 6, 7, 8]",4,True,CHON,carboxylic_acid
5741,"N,N'-bis(2-aminoethyl)propane-1,3-diamine",C(CNCCN)CNCCN,605.16,7,"[1, 6, 7]",3,True,CHN,amine
5742,"5-methyl-5-propan-2-ylimidazolidine-2,4-dione",CC(C)C1(C(=O)NC(=O)N1)C,607.58,7,"[1, 6, 7, 8]",4,True,CHON,amide
5743,N'-[3-(aziridin-1-yl)propyl]oxamide,C1CN1CCCNC(=O)C(=O)N,609.78,7,"[1, 6, 7, 8]",4,True,CHON,amide
5744,2-[(2-methylpropan-2-yl)oxycarbonylamino]acetic acid,CC(C)(C)OC(=O)NCC(=O)O,610.43,7,"[1, 6, 7, 8]",4,True,CHON,carboxylic_acid
5745,4-hydroxy-N-(2-hydroxyethyl)-N-methylbutanamide,CN(CCO)C(=O)CCCO,610.43,7,"[1, 6, 7, 8]",4,True,CHON,amide
5746,"N,N-bis(2-hydroxyethyl)propanamide",CCC(=O)N(CCO)CCO,610.43,7,"[1, 6, 7, 8]",4,True,CHON,amide
5747,"3-propan-2-ylpiperazine-2,5-dione",CC(C)C1C(=O)NCC(=O)N1,611.61,7,"[1, 6, 7, 8]",4,True,CHON,amide
5748,2-acetamido-3-methylbut-2-enoic acid,CC(=C(C(=O)O)NC(=O)C)C,613.23,7,"[1, 6, 7, 8]",4,True,CHON,carboxylic_acid
5749,"2-methylpropyl N,N-bis(hydroxymethyl)carbamate",CC(C)COC(=O)N(CO)CO,614.34,7,"[1, 6, 7, 8]",4,True,CHON,ester
5750,ethyl (Z)-2-cyano-3-hydroxybut-2-enoate,CCOC(=O)/C(=C(/C)\O)/C#N,616.16,7,"[1, 6, 7, 8]",4,True,CHON,ester
5751,N-(3-hydroxybutyl)-N-(2-hydroxypropyl)nitrous amide,CC(CCN(CC(C)O)N=O)O,619.08,7,"[1, 6, 7, 8]",4,True,CHON,alcohol
5752,N-(4-hydroxybutyl)-N-(2-hydroxypropyl)nitrous amide,CC(CN(CCCCO)N=O)O,619.52,7,"[1, 6, 7, 8]",4,True,CHON,alcohol
5753,N-(4-hydroxybutyl)-N-(3-hydroxypropyl)nitrous amide,C(CCO)CN(CCCO)N=O,619.96,7,"[1, 6, 7, 8]",4,True,CHON,alcohol
5754,ethyl 2-acetamido-2-cyanoacetate,CCOC(=O)C(C#N)NC(=O)C,623.66,7,"[1, 6, 7, 8]",4,True,CHON,ester
5755,"1,3-diazaspiro[4.4]nonane-2,4-dione",C1CCC2(C1)C(=O)NC(=O)N2,623.7,7,"[1, 6, 7, 8]",4,True,CHON,amide
5756,1-[2-(2-aminoethylamino)ethylamino]propan-2-ol,CC(CNCCNCCN)O,624.37,7,"[1, 6, 7, 8]",4,True,CHON,alcohol
5757,"N,N-bis(2-cyanoethyl)formamide",C(CN(CCC#N)C=O)C#N,625.02,7,"[1, 6, 7, 8]",4,True,CHON,amide
5758,2-[2-(2-aminoethylamino)ethylamino]propanenitrile,CC(C#N)NCCNCCN,634.27,7,"[1, 6, 7]",3,True,CHN,amine
5759,3-[2-(2-aminoethylamino)ethylamino]propanenitrile,C(CNCCNCCN)C#N,634.71,7,"[1, 6, 7]",3,True,CHN,amine
5760,"heptane-1,2,3-triol",CCCCC(C(CO)O)O,635.42,7,"[1, 6, 8]",3,True,CHO,alcohol
5761,"heptane-1,4,7-triol",C(CC(CCCO)O)CO,635.86,7,"[1, 6, 8]",3,True,CHO,alcohol
5762,diethyl 2-hydroxyiminopropanedioate,CCOC(=O)C(=NO)C(=O)OCC,644.94,7,"[1, 6, 7, 8]",4,True,CHON,ester
5763,"2,2,3-trimethylbutanedioic acid",CC(C(=O)O)C(C)(C)C(=O)O,647.11,7,"[1, 6, 8]",3,True,CHO,alcohol
5764,"2,2-diethylpropanedioic acid",CCC(CC)(C(=O)O)C(=O)O,647.55,7,"[1, 6, 8]",3,True,CHO,alcohol
5765,"2,2-dimethylpentanedioic acid",CC(C)(CCC(=O)O)C(=O)O,647.55,7,"[1, 6, 8]",3,True,CHO,alcohol
5766,"3,3-dimethylpentanedioic acid",CC(C)(CC(=O)O)CC(=O)O,647.55,7,"[1, 6, 8]",3,True,CHO,alcohol
5767,"2,4-dimethylpentanedioic acid",CC(CC(C)C(=O)O)C(=O)O,649.9,7,"[1, 6, 8]",3,True,CHO,alcohol
5768,2-propan-2-ylbutanedioic acid,CC(C)C(CC(=O)O)C(=O)O,649.9,7,"[1, 6, 8]",3,True,CHO,alcohol
5769,2-(2-methylpropyl)propanedioic acid,CC(C)CC(C(=O)O)C(=O)O,649.9,7,"[1, 6, 8]",3,True,CHO,alcohol
5770,3-methylhexanedioic acid,CC(CCC(=O)O)CC(=O)O,650.34,7,"[1, 6, 8]",3,True,CHO,alcohol
5771,2-propan-2-ylidenebutanedioic acid,CC(=C(CC(=O)O)C(=O)O)C,654.7,7,"[1, 6, 8]",3,True,CHO,alkene
5772,3-[bis(2-hydroxyethyl)amino]propanenitrile,C(CN(CCO)CCO)C#N,658.64,7,"[1, 6, 7, 8]",4,True,CHON,alcohol
5773,2-(butylcarbamoylamino)acetic acid,CCCCNC(=O)NCC(=O)O,659.48,7,"[1, 6, 7, 8]",4,True,CHON,alcohol
5774,"3-(2-hydroxyethyl)-5,5-dimethylimidazolidine-2,4-dione",CC1(C(=O)N(C(=O)N1)CCO)C,659.82,7,"[1, 6, 7, 8]",4,True,CHON,amide
5775,"5-ethyl-1,3-bis(hydroxymethyl)-1,3,5-triazinan-2-one",CCN1CN(C(=O)N(C1)CO)CO,660.67,7,"[1, 6, 7, 8]",4,True,CHON,amide
5776,"cyclopentane-1,3-dicarboxylic acid",C1CC(CC1C(=O)O)C(=O)O,661.39,7,"[1, 6, 8]",3,True,CHO,alcohol
5777,2-amino-2-(hydroxymethyl)-4-methylpentanoic acid,CC(C)CC(CO)(C(=O)O)N,666.31,7,"[1, 6, 7, 8]",4,True,CHON,carboxylic_acid
5778,2-hydroxyethyl N-[2-(2-hydroxyethoxy)ethyl]carbamate,C(COCCO)NC(=O)OCCO,674.93,7,"[1, 6, 7, 8]",4,True,CHON,ester
5779,"5-prop-2-enyl-1,3-diazinane-2,4,6-trione",C=CCC1C(=O)NC(=O)NC1=O,676.55,7,"[1, 6, 7, 8]",4,True,CHON,alkene
5780,2-[(2-aminoacetyl)amino]-3-methylbutanoic acid,CC(C)C(C(=O)O)NC(=O)CN,680.96,7,"[1, 6, 7, 8]",4,True,CHON,carboxylic_acid
5781,2-(2H-tetrazol-5-yl)phenol,C1=CC=C(C(=C1)C2=NNN=N2)O,682.85,7,"[1, 6, 7, 8]",4,True,CHON,aromatic
5782,"4-[(E)-hydroxyiminomethyl]benzene-1,3-diol",C1=CC(=C(C=C1O)O)/C=N/O,696.27,7,"[1, 6, 7, 8]",4,True,CHON,aromatic
5783,"2,4,6,8,10,13-hexazatricyclo[7.3.1.05,13]trideca-1,3,5,7,9,11-hexaene",C1=CN=C2N=CN=C3N2C1=NC=N3,697.64,7,"[1, 6, 7]",3,True,CHN,alkene
5784,"2,4,6,8,11,13-hexazatricyclo[7.3.1.05,13]trideca-1(12),2,4,6,8,10-hexaene",C1=C2N=CN=C3N2C(=NC=N3)C=N1,697.64,7,"[1, 6, 7]",3,True,CHN,alkene
5785,"5-(4-hydroxybutyl)imidazolidine-2,4-dione",C(CCO)CC1C(=O)NC(=O)N1,699.96,7,"[1, 6, 7, 8]",4,True,CHON,alcohol
5786,4-oxoheptanedioic acid,C(CC(=O)O)C(=O)CCC(=O)O,704.65,7,"[1, 6, 8]",3,True,CHO,carboxylic_acid
5787,"2-(2,6-dioxopiperidin-4-yl)acetic acid",C1C(CC(=O)NC1=O)CC(=O)O,709.01,7,"[1, 6, 7, 8]",4,True,CHON,carboxylic_acid
5788,1-benzyl-2-methylhydrazine,CNNCC1=CC=CC=C1,275.65,8,"[1, 6, 7]",3,True,CHN,aromatic
5789,2-hydroperoxy-2-(2-hydroperoxybutan-2-ylperoxy)butane,CCC(C)(OO)OOC(C)(CC)OO,292.15,8,"[1, 6, 8]",3,True,CHO,ester
5790,4-[butyl(nitroso)amino]butanoic acid,CCCCN(CCCC(=O)O)N=O,308.75,8,"[1, 6, 7, 8]",4,True,CHON,alcohol
5791,N-butyl-N-(2-oxobutyl)nitrous amide,CCCCN(CC(=O)CC)N=O,317.85,8,"[1, 6, 7, 8]",4,True,CHON,ketone
5792,1-ethoxycyclohexene,CCOC1=CCCCC1,320.65,8,"[1, 6, 8]",3,True,CHO,ester
5793,2-(2-azaspiro[3.3]heptan-2-yl)ethanamine,C1CC2(C1)CN(C2)CCN,320.65,8,"[1, 6, 7]",3,True,CHN,amine
5794,hex-1-en-3-yl acetate,CCCC(C=C)OC(=O)C,322.65,8,"[1, 6, 8]",3,True,CHO,ester
5795,4-(3-carboxypropanoylperoxy)-4-oxobutanoic acid,C(CC(=O)OOC(=O)CCC(=O)O)C(=O)O,326.15,8,"[1, 6, 8]",3,True,CHO,alcohol
5796,"1,1-dimethoxycyclohexane",COC1(CCCCC1)OC,327.15,8,"[1, 6, 8]",3,True,CHO,ester
5797,"(1Z,3Z)-cycloocta-1,3-diene",C1C/C=C\C=C/CC1,327.15,8,"[1, 6]",2,True,CH,alkene
5798,"N,N',N'-triethylethane-1,2-diamine",CCNCCN(CC)CC,327.65,8,"[1, 6, 7]",3,True,CHN,amine
5799,ethyl 4-methylpent-2-enoate,CCOC(=O)C=CC(C)C,331.4,8,"[1, 6, 8]",3,True,CHO,ester
5800,ethyl 2-pyrrolidin-1-ylacetate,CCOC(=O)CN1CCCC1,332.4,8,"[1, 6, 7, 8]",4,True,CHON,ester
5801,N-butyl-N-(4-hydroxybutyl)nitrous amide,CCCCN(CCCCO)N=O,333.15,8,"[1, 6, 7, 8]",4,True,CHON,alcohol
5802,"1-N,1-N,3-N,3-N-tetramethylbut-1-ene-1,3-diamine",CC(C=CN(C)C)N(C)C,337.15,8,"[1, 6, 7]",3,True,CHN,alkene
5803,2-hexyloxirane,CCCCCCC1CO1,338.15,8,"[1, 6, 8]",3,True,CHO,ester
5804,"1,3,6,8-tetrazatricyclo[4.4.1.13,8]dodecane",C1CN2CN3CCN(C2)CN1C3,338.55,8,"[1, 6, 7]",3,True,CHN,amine
5805,2-anilino-2-oxoacetic acid,C1=CC=C(C=C1)NC(=O)C(=O)O,338.65,8,"[1, 6, 7, 8]",4,True,CHON,carboxylic_acid
5806,"1,1-diethoxybut-2-yne",CCOC(C#CC)OCC,339.15,8,"[1, 6, 8]",3,True,CHO,ester
5807,tert-butyl 2-methylpropaneperoxoate,CC(C)C(=O)OOC(C)(C)C,341.45,8,"[1, 6, 8]",3,True,CHO,ester
5808,"5,10-dioxatricyclo[7.1.0.04,6]decane",C1CC2C(O2)CCC3C1O3,343.15,8,"[1, 6, 8]",3,True,CHO,ester
5809,"2-ethyl-5,5-dimethyl-1,3-dioxane",CCC1OCC(CO1)(C)C,349.15,8,"[1, 6, 8]",3,True,CHO,ester
5810,2-ethoxy-4-methyloxane,CCOC1CC(CCO1)C,350.3,8,"[1, 6, 8]",3,True,CHO,ester
5811,methyl 2-methylhexanoate,CCCCC(C)C(=O)OC,350.65,8,"[1, 6, 8]",3,True,CHO,ester
5812,"2,3-dimethylcyclohexan-1-one",CC1CCCC(=O)C1C,351.15,8,"[1, 6, 8]",3,True,CHO,ketone
5813,"(E)-N,N'-diethylbut-2-ene-1,4-diamine",CCNC/C=C/CNCC,354.65,8,"[1, 6, 7]",3,True,CHN,alkene
5814,(E)-oct-2-enal,CCCCC/C=C/C=O,356.15,8,"[1, 6, 8]",3,True,CHO,alkene
5815,"4,5-dimethylcyclohex-2-en-1-one",CC1CC(=O)C=CC1C,357.15,8,"[1, 6, 8]",3,True,CHO,alkene
5816,dimethyl 2-acetylbutanedioate,CC(=O)C(CC(=O)OC)C(=O)OC,357.15,8,"[1, 6, 8]",3,True,CHO,ester
5817,2-pyrrolidin-1-ylethyl acetate,CC(=O)OCCN1CCCC1,358.65,8,"[1, 6, 7, 8]",4,True,CHON,ester
5818,"(3E)-6-methylhepta-3,5-dien-2-one",CC(=C/C=C/C(=O)C)C,359.65,8,"[1, 6, 8]",3,True,CHO,alkene
5819,1-(furan-2-yl)-2-methylpropan-1-one,CC(C)C(=O)C1=CC=CO1,359.65,8,"[1, 6, 8]",3,True,CHO,aromatic
5820,[(E)-1-acetyloxybut-2-enyl] acetate,C/C=C/C(OC(=O)C)OC(=O)C,363.65,8,"[1, 6, 8]",3,True,CHO,ester
5821,4-(diethylamino)butan-1-ol,CCN(CC)CCCCO,364.15,8,"[1, 6, 7, 8]",4,True,CHON,alcohol
5822,N-cyclopropylcyclopentanamine,C1CCC(C1)NC2CC2,365.15,8,"[1, 6, 7]",3,True,CHN,amine
5823,N-tert-butyl-2-methylpropan-2-amine,CC(C)(C)NC(C)(C)C,366.65,8,"[1, 6, 7]",3,True,CHN,amine
5824,1-isocyanato-2-methoxybenzene,COC1=CC=CC=C1N=C=O,367.85,8,"[1, 6, 7, 8]",4,True,CHON,ester
5825,"3,4-dimethylidenehexa-1,5-diene",C=CC(=C)C(=C)C=C,369.12,8,"[1, 6]",2,True,CH,alkene
5826,"2-[2-(2-methoxyethoxy)ethoxy]-1,3-dioxolane",COCCOCCOC1OCCO1,369.15,8,"[1, 6, 8]",3,True,CHO,ester
5827,oct-3-yn-1-ol,CCCCC#CCCO,370.15,8,"[1, 6, 8]",3,True,CHO,alkyne
5828,"(3E,5E)-octa-3,5-dien-1,7-diyne",C#C/C=C/C=C/C#C,371.2,8,"[1, 6]",2,True,CH,alkene
5829,5-methylhept-1-yne,CCC(C)CCC#C,372.32,8,"[1, 6]",2,True,CH,alkyne
5830,"pentacyclo[3.3.0.02,4.03,7.06,8]octane",C12C3C4C3C5C4C1C25,372.44,8,"[1, 6]",2,True,CH,alkane
5831,"2,3,3-trimethylpenta-1,4-diene",CC(=C)C(C)(C)C=C,372.65,8,"[1, 6]",2,True,CH,alkene
5832,(2-hydroxyphenyl) N-methylcarbamate,CNC(=O)OC1=CC=CC=C1O,374.15,8,"[1, 6, 7, 8]",4,True,CHON,ester
5833,N-butyl-N-(1-hydroperoxybutyl)nitrous amide,CCCCN(C(CCC)OO)N=O,374.75,8,"[1, 6, 7, 8]",4,True,CHON,ester
5834,"1-ethyl-2,5-dimethylpyrrole",CCN1C(=CC=C1C)C,375.15,8,"[1, 6, 7]",3,True,CHN,aromatic
5835,"ethyl 3,3-dimethylbutanoate",CCOC(=O)CC(C)(C)C,375.15,8,"[1, 6, 8]",3,True,CHO,ester
5836,3-ethyl-3-methylpent-1-yne,CCC(C)(CC)C#C,375.2,8,"[1, 6]",2,True,CH,alkyne
5837,"(E)-2,5-dimethylhex-3-ene",CC(C)/C=C/C(C)C,375.21134,8,"[1, 6]",2,True,CH,alkene
5838,"2,3,4-trimethylpenta-1,4-diene",CC(C(=C)C)C(=C)C,375.32,8,"[1, 6]",2,True,CH,alkene
5839,4-(2-aminoethyl)aniline,C1=CC(=CC=C1CCN)N,376.15,8,"[1, 6, 7]",3,True,CHN,aromatic
5840,4-ethylhex-3-en-1-yne,CCC(=CC#C)CC,376.8,8,"[1, 6]",2,True,CH,alkene
5841,6-methylhept-5-en-1-yne,CC(=CCCC#C)C,376.8,8,"[1, 6]",2,True,CH,alkene
5842,(Z)-oct-3-en-1-yne,CCCC/C=C\C#C,376.92,8,"[1, 6]",2,True,CH,alkene
5843,(E)-oct-3-en-1-yne,CCCC/C=C/C#C,376.92,8,"[1, 6]",2,True,CH,alkene
5844,"3,5-dimethylhex-1-ene",CC(C)CC(C)C=C,377.15,8,"[1, 6]",2,True,CH,alkene
5845,"2,4-dimethyl-3-methylidenepentane",CC(C)C(=C)C(C)C,377.15,8,"[1, 6]",2,True,CH,alkene
5846,"3-methylidenetetracyclo[3.2.0.02,7.04,6]heptane",C=C1C2C3C2C4C3C41,378.07,8,"[1, 6]",2,True,CH,alkene
5847,[3-(hydroxymethyl)cyclohexyl]methanol,C1CC(CC(C1)CO)CO,378.65,8,"[1, 6, 8]",3,True,CHO,alcohol
5848,"(E)-4,4-dimethylhex-2-ene",CCC(C)(C)/C=C/C,379.15,8,"[1, 6]",2,True,CH,alkene
5849,"3-ethynyl-1,1-dimethylcyclobutane",CC1(CC(C1)C#C)C,379.34,8,"[1, 6]",2,True,CH,alkyne
5850,"(3E)-5-methylhepta-1,3,6-triene",CC(C=C)/C=C/C=C,379.72,8,"[1, 6]",2,True,CH,alkene
5851,"(3E)-2,5-dimethylhexa-1,3,5-triene",CC(=C)/C=C/C(=C)C,379.92,8,"[1, 6]",2,True,CH,alkene
5852,"3-ethenyl-4-methylpenta-1,3-diene",CC(=C(C=C)C=C)C,379.92,8,"[1, 6]",2,True,CH,alkene
5853,"(4E)-2,3-dimethylhexa-1,4-diene",C/C=C/C(C)C(=C)C,380.15,8,"[1, 6]",2,True,CH,alkene
5854,"butane-1,2,3,4-tetracarboxylic acid",C(C(C(CC(=O)O)C(=O)O)C(=O)O)C(=O)O,380.15,8,"[1, 6, 8]",3,True,CHO,alcohol
5855,"N-butyl-N-(2,4-dihydroxybutyl)nitrous amide",CCCCN(CC(CCO)O)N=O,380.15,8,"[1, 6, 7, 8]",4,True,CHON,alcohol
5856,"(3E)-5,5-dimethylhexa-1,3-diene",CC(C)(C)/C=C/C=C,380.25,8,"[1, 6]",2,True,CH,alkene
5857,"4,4-dimethylhex-1-ene",CCC(C)(C)CC=C,380.35,8,"[1, 6]",2,True,CH,alkene
5858,"1,5-dimethyl-3-methylidenetricyclo[2.1.0.02,5]pentane",CC12C3C1(C2C3=C)C,380.75,8,"[1, 6]",2,True,CH,alkene
5859,"octa-1,3,5,7-tetrayne",C#CC#CC#CC#C,380.88,8,"[1, 6]",2,True,CH,alkyne
5860,"2,2,5,5-tetramethylpyrrolidine",CC1(CCC(N1)(C)C)C,381.15,8,"[1, 6, 7]",3,True,CHN,amine
5861,"(E)-3,5-dimethylhex-2-ene",C/C=C(\C)/CC(C)C,382.15,8,"[1, 6]",2,True,CH,alkene
5862,"4,5-dimethylhex-1-ene",CC(C)C(C)CC=C,382.15,8,"[1, 6]",2,True,CH,alkene
5863,"1,3-bis(ethenyl)cyclobutane",C=CC1CC(C1)C=C,382.34,8,"[1, 6]",2,True,CH,alkene
5864,"5,6,7,8-tetrahydroquinoxaline",C1CCC2=NC=CN=C2C1,382.65,8,"[1, 6, 7]",3,True,CHN,aromatic
5865,"(Z)-4,5-dimethylhex-2-ene",C/C=C\C(C)C(C)C,382.95,8,"[1, 6]",2,True,CH,alkene
5866,4-ethylhex-1-ene,CCC(CC)CC=C,383.15,8,"[1, 6]",2,True,CH,alkene
5867,"tetracyclo[3.3.0.02,8.04,6]octane",C1C2C3C2C4C1C4C3,383.18,8,"[1, 6]",2,True,CH,alkane
5868,"(3E)-3-ethylhexa-1,3-diene",CC/C=C(\CC)/C=C,383.36,8,"[1, 6]",2,True,CH,alkene
5869,"(4E)-4-methylhepta-1,4-diene",CC/C=C(\C)/CC=C,383.36,8,"[1, 6]",2,True,CH,alkene
5870,"(3E)-4-methylhepta-1,3-diene",CCC/C(=C/C=C)/C,383.36,8,"[1, 6]",2,True,CH,alkene
5871,"(5E)-2-methylhepta-1,5-diene",C/C=C/CCC(=C)C,383.36,8,"[1, 6]",2,True,CH,alkene
5872,2-methyl-4-methylidenehexane,CCC(=C)CC(C)C,383.45,8,"[1, 6]",2,True,CH,alkene
5873,"(6E)-octa-1,6-diene",C/C=C/CCCC=C,383.48,8,"[1, 6]",2,True,CH,alkene
5874,"(E)-5,5-dimethylhex-2-ene",C/C=C/CC(C)(C)C,383.57,8,"[1, 6]",2,True,CH,alkene
5875,"2,4-dimethylhex-1-ene",CCC(C)CC(=C)C,384.35,8,"[1, 6]",2,True,CH,alkene
5876,"1,1,2,2-tetramethyl-3-methylidenecyclopropane",CC1(C(=C)C1(C)C)C,384.35,8,"[1, 6]",2,True,CH,alkene
5877,3-(1-ethoxyethoxy)but-1-yne,CCOC(C)OC(C)C#C,385.15,8,"[1, 6, 8]",3,True,CHO,ester
5878,"2,2,5,5-tetramethyloxolane",CC1(CCC(O1)(C)C)C,385.15,8,"[1, 6, 8]",3,True,CHO,ester
5879,2-methylhept-3-ene,CCCC=CC(C)C,385.15,8,"[1, 6]",2,True,CH,alkene
5880,(E)-5-methylhept-3-ene,CC/C=C/C(C)CC,385.15,8,"[1, 6]",2,True,CH,alkene
5881,(Z)-2-methylhept-3-ene,CCC/C=C\C(C)C,385.15,8,"[1, 6]",2,True,CH,alkene
5882,"(E)-3,4,4-trimethylpent-2-ene",C/C=C(\C)/C(C)(C)C,385.15,8,"[1, 6]",2,True,CH,alkene
5883,"3-ethenyl-1,1-dimethylcyclobutane",CC1(CC(C1)C=C)C,385.9,8,"[1, 6]",2,True,CH,alkene
5884,2-methyl-3-methylidenehexane,CCCC(=C)C(C)C,386.15,8,"[1, 6]",2,True,CH,alkene
5885,(E)-4-ethylhex-2-ene,CCC(CC)/C=C/C,386.15,8,"[1, 6]",2,True,CH,alkene
5886,"(E)-2,3-dimethylhex-3-ene",CC/C=C(\C)/C(C)C,386.24,8,"[1, 6]",2,True,CH,alkene
5887,(E)-5-methylhept-2-ene,CCC(C)C/C=C/C,386.36,8,"[1, 6]",2,True,CH,alkene
5888,2-ethenoxyethyl 2-methylprop-2-enoate,CC(=C)C(=O)OCCOC=C,386.4,8,"[1, 6, 8]",3,True,CHO,ester
5889,(E)-4-methylhept-2-ene,CCCC(C)/C=C/C,387.1,8,"[1, 6]",2,True,CH,alkene
5890,(E)-2-methylhept-3-ene,CCC/C=C/C(C)C,387.13,8,"[1, 6]",2,True,CH,alkene
5891,[4-(aminomethyl)cyclohexyl]methanamine,C1CC(CCC1CN)CN,387.15,8,"[1, 6, 7]",3,True,CHN,amine
5892,"(3E)-6-methylhepta-1,3,5-triene",CC(=C/C=C/C=C)C,387.52,8,"[1, 6]",2,True,CH,alkene
5893,"(3E,5E)-5-methylhepta-1,3,5-triene",C/C=C(\C)/C=C/C=C,387.52,8,"[1, 6]",2,True,CH,alkene
5894,2-[(2-methylpropan-2-yl)oxy]butane,CCC(C)OC(C)(C)C,387.65,8,"[1, 6, 8]",3,True,CHO,ester
5895,3-ethyl-2-methylpent-2-ene,CCC(=C(C)C)CC,387.9,8,"[1, 6]",2,True,CH,alkene
5896,prop-2-ynylcyclopentane,C#CCC1CCCC1,388.04,8,"[1, 6]",2,True,CH,alkyne
5897,(E)-6-methylhept-3-ene,CC/C=C/CC(C)C,388.15,8,"[1, 6]",2,True,CH,alkene
5898,2-methylhept-1-en-3-yne,CCCC#CC(=C)C,388.2,8,"[1, 6]",2,True,CH,alkene
5899,oct-1-en-4-yne,CCCC#CCC=C,388.32,8,"[1, 6]",2,True,CH,alkene
5900,"2,2-dimethylhex-3-yne",CCC#CC(C)(C)C,388.41,8,"[1, 6]",2,True,CH,alkyne
5901,"5,5-dimethylhex-2-yne",CC#CCC(C)(C)C,388.41,8,"[1, 6]",2,True,CH,alkyne
5902,3-methylbutan-2-ylcyclopropane,CC(C)C(C)C1CC1,388.64,8,"[1, 6]",2,True,CH,alkane
5903,1-ethynyl-1-prop-1-ynylcyclopropane,CC#CC1(CC1)C#C,388.74,8,"[1, 6]",2,True,CH,alkyne
5904,"(5E)-4-methylhepta-1,5-diene",C/C=C/C(C)CC=C,388.97729,8,"[1, 6]",2,True,CH,alkene
5905,"1,2-diethylcyclobutane",CCC1CCC1CC,388.98,8,"[1, 6]",2,True,CH,alkane
5906,"6-methyltricyclo[4.1.0.02,7]hept-3-ene",CC12CC=CC3C1C23,389.05,8,"[1, 6]",2,True,CH,alkene
5907,"1-methyltricyclo[4.1.0.02,7]hept-3-ene",CC12C3C1C2C=CC3,389.05,8,"[1, 6]",2,True,CH,alkene
5908,5-methylidenebicyclo[2.2.1]hept-2-ene,C=C1CC2CC1C=C2,389.15,8,"[1, 6]",2,True,CH,alkene
5909,N-tert-butylbutan-1-amine,CCCCNC(C)(C)C,389.15,8,"[1, 6, 7]",3,True,CHN,amine
5910,3-ethylhex-3-ene,CCC=C(CC)CC,389.15,8,"[1, 6]",2,True,CH,alkene
5911,"(E)-3,4-dimethylhex-2-ene",CCC(C)/C(=C/C)/C,389.15,8,"[1, 6]",2,True,CH,alkene
5912,"octa-1,3,7-trien-5-yne",C=CC=CC#CC=C,389.16,8,"[1, 6]",2,True,CH,alkene
5913,"(E)-N,N-diethylbut-1-en-3-yn-1-amine",CCN(CC)/C=C/C#C,389.36,8,"[1, 6, 7]",3,True,CHN,alkene
5914,5-methylbicyclo[2.2.1]hept-2-ene,CC1CC2CC1C=C2,389.4,8,"[1, 6]",2,True,CH,alkene
5915,"2,5-dimethylhexa-1,4-diene",CC(=CCC(=C)C)C,389.7,8,"[1, 6]",2,True,CH,alkene
5916,"1-methyltricyclo[4.1.0.02,7]heptane",CC12C3C1C2CCC3,389.89,8,"[1, 6]",2,True,CH,alkane
5917,"2-methyltricyclo[4.1.0.02,7]heptane",CC12CCCC3C1C23,389.89,8,"[1, 6]",2,True,CH,alkane
5918,3-methylbut-1-en-2-ylcyclopropane,CC(C)C(=C)C1CC1,389.96,8,"[1, 6]",2,True,CH,alkene
5919,"(4E)-2,3-dimethylhexa-2,4-diene",C/C=C/C(=C(C)C)C,390.72,8,"[1, 6]",2,True,CH,alkene
5920,"(4Z)-2,4-dimethylhexa-2,4-diene",C/C=C(/C)\C=C(C)C,390.72,8,"[1, 6]",2,True,CH,alkene
5921,"(4E)-2,4-dimethylhexa-2,4-diene",C/C=C(\C)/C=C(C)C,390.72,8,"[1, 6]",2,True,CH,alkene
5922,"2,5-dimethylhex-3-yne",CC(C)C#CC(C)C,390.76,8,"[1, 6]",2,True,CH,alkyne