,Name,SMILES,Tb,C Atom,Atom,Count Unique Atom,Pass Screen,Atom2,Func. Group
2367,"Propanamide, N,n-Dimethyl-",CCC(=O)N(C)C,447.65,5,"[1, 6, 7, 8]",4,True,CHON,amide
2368,"Nitrous Acid, Octyl Ester",CCCCCCCCON=O,447.65,8,"[1, 6, 7, 8]",4,True,CHON,ester
2369,Ethyl Ethylcarbamate,CCNC(=O)OCC,449.15,5,"[1, 6, 7, 8]",4,True,CHON,ester
2370,"Piperidine, 1-Butyl-",CCCCN1CCCCC1,449.15,9,"[1, 6, 7]",3,True,CHN,amine
2371,"P-Formyl-N,n-Dimethylaniline",CN(C)C1=CC=C(C=C1)C=O,449.65,9,"[1, 6, 7, 8]",4,True,CHON,aldehyde
2372,5-Methoxyindole,COC1=CC2=C(C=C1)NC=C2,450.15,9,"[1, 6, 7, 8]",4,True,CHON,ester
2373,Tetramethylurea,CN(C)C(=O)N(C)C,449.65,5,"[1, 6, 7, 8]",4,True,CHON,amide
2374,Enallylpropymal,CC(C)C1(C(=O)NC(=O)N(C1=O)C)CC=C,450.15,11,"[1, 6, 7, 8]",4,True,CHON,amide
2375,"5-Hepten-2-Amine, N,6-Dimethyl-",CC(CCC=C(C)C)NC,450.15,9,"[1, 6, 7]",3,True,CHN,alkene
2376,"N,n-Diethylformamide",CCN(CC)C=O,450.65,5,"[1, 6, 7, 8]",4,True,CHON,amide
2377,2-Amino-Butan-1-Ol,CCC(CO)N,451.15,4,"[1, 6, 7, 8]",4,True,CHON,alcohol
2378,"Pyridine, 4-(1-Methylethyl)-",CC(C)C1=CC=NC=C1,451.15,8,"[1, 6, 7]",3,True,CHN,aromatic
2379,5-Ethyl-2-Methylpyridine,CCC1=CN=C(C=C1)C,451.45,8,"[1, 6, 7]",3,True,CHN,aromatic
2380,Cadaverine,C(CCN)CCN,452.15,5,"[1, 6, 7]",3,True,CHN,amine
2381,"Pyridine, 2,6-Dimethoxy-",COC1=NC(=CC=C1)OC,452.15,7,"[1, 6, 7, 8]",4,True,CHON,ester
2382,"Pyridine, 4-Ethyl-2-Methyl-",CCC1=CC(=NC=C1)C,452.15,8,"[1, 6, 7]",3,True,CHN,aromatic
2383,"3,4-Dimethylpyridine",CC1=C(C=NC=C1)C,452.25,7,"[1, 6, 7]",3,True,CHN,aromatic
2384,N-Octylamine,CCCCCCCCN,452.75,8,"[1, 6, 7]",3,True,CHN,amine
2385,Ethylnitrite,CCON=O,291.15,2,"[1, 6, 7, 8]",4,True,CHON,ester
2386,Mescaline,COC1=CC(=CC(=C1OC)OC)CCN,453.15,11,"[1, 6, 7, 8]",4,True,CHON,ester
2387,Diacetonamine,CC(=O)CC(C)(C)N,453.15,6,"[1, 6, 7, 8]",4,True,CHON,ketone
2388,Fenadiazole,C1=CC=C(C(=C1)C2=NN=CO2)O,453.15,8,"[1, 6, 7, 8]",4,True,CHON,aromatic
2389,4-Aminoquinoline,C1=CC=C2C(=C1)C(=CC=N2)N,453.15,9,"[1, 6, 7]",3,True,CHN,aromatic
2390,"Benzonitrile, 3,4,5-Trimethoxy-",COC1=CC(=CC(=C1OC)OC)C#N,455.65,10,"[1, 6, 7, 8]",4,True,CHON,ester
2391,N-Methylbenzylamine,CNCC1=CC=CC=C1,453.65,8,"[1, 6, 7]",3,True,CHN,aromatic
2392,"Pyrazine, 3-Ethyl-2,5-Dimethyl-",CCC1=NC(=CN=C1C)C,453.65,8,"[1, 6, 7]",3,True,CHN,aromatic
2393,"Pyrazine, 2,3-Diethyl-",CCC1=NC=CN=C1CC,454.15,8,"[1, 6, 7]",3,True,CHN,aromatic
2394,N-Isobutylmorpholine,CC(C)CN1CCOCC1,454.15,8,"[1, 6, 7, 8]",4,True,CHON,ester
2395,2-Methyl-5-Vinylpyridine,CC1=NC=C(C=C1)C=C,454.15,8,"[1, 6, 7]",3,True,CHN,alkene
2396,"N,n-Dimethylbenzylamine",CN(C)CC1=CC=CC=C1,454.15,9,"[1, 6, 7]",3,True,CHN,aromatic
2397,"2-Propanol, 1,3-Bis(dimethylamino)-",CN(C)CC(CN(C)C)O,454.65,7,"[1, 6, 7, 8]",4,True,CHON,alcohol
2398,O-Hydroxybenzamide,C1=CC=C(C(=C1)C(=O)N)O,454.65,7,"[1, 6, 7, 8]",4,True,CHON,amide
2399,Benzoxazole,C1=CC=C2C(=C1)N=CO2,455.65,7,"[1, 6, 7, 8]",4,True,CHON,aromatic
2400,"Acetonitrile, Hydroxy-",C(C#N)O,456.15,2,"[1, 6, 7, 8]",4,True,CHON,alcohol
2401,2-Hydroxypropanenitrile,CC(C#N)O,456.15,3,"[1, 6, 7, 8]",4,True,CHON,alcohol
2402,Isopropyl Carbamate,CC(C)OC(=O)N,456.15,4,"[1, 6, 7, 8]",4,True,CHON,ester
2403,"Ethanol, 2-(propylamino)-",CCCNCCO,456.15,5,"[1, 6, 7, 8]",4,True,CHON,alcohol
2404,"Pyridine, 2,3,5-Trimethyl-",CC1=CC(=C(N=C1)C)C,457.15,8,"[1, 6, 7]",3,True,CHN,aromatic
2405,Aniline,C1=CC=C(C=C1)N,457.31999999999994,6,"[1, 6, 7]",3,True,CHN,aromatic
2406,"Propanenitrile, 3-Amino-",C(CN)C#N,458.15,3,"[1, 6, 7]",3,True,CHN,amine
2407,Benzylamine,C1=CC=C(C=C1)CN,458.15,7,"[1, 6, 7]",3,True,CHN,aromatic
2408,"Benzenemethanamine, .alpha.-Methyl-",CC(C1=CC=CC=C1)N,458.15,8,"[1, 6, 7]",3,True,CHN,aromatic
2409,4-Propylpyridine,CCCC1=CC=NC=C1,458.15,8,"[1, 6, 7]",3,True,CHN,aromatic
2410,"Benzene, 1-Isocyanato-2-Methyl-",CC1=CC=CC=C1N=C=O,458.15,8,"[1, 6, 7, 8]",4,True,CHON,aromatic
2411,"Methanamine, N-(phenylmethylene)-",CN=CC1=CC=CC=C1,458.15,8,"[1, 6, 7]",3,True,CHN,aromatic
2412,"2,3-Butanedione, Monooxime",C/C(=N\O)/C(=O)C,458.65,4,"[1, 6, 7, 8]",4,True,CHON,ketone
2413,Diethylacetamide,CCN(CC)C(=O)C,458.65,6,"[1, 6, 7, 8]",4,True,CHON,amide
2414,"2-Butenedinitrile, (e)-",C(=C/C#N)\C#N,459.15,4,"[1, 6, 7]",3,True,CHN,alkene
2415,"Butanamide, N,n-Dimethyl-",CCCC(=O)N(C)C,459.15,6,"[1, 6, 7, 8]",4,True,CHON,amide
2416,2-(dimethylamino)ethyl 2-Methyl-2-Propenoate,CC(=C)C(=O)OCCN(C)C,459.15,8,"[1, 6, 7, 8]",4,True,CHON,ester
2417,Pyrazole,C1=CNN=C1,460.15,3,"[1, 6, 7]",3,True,CHN,aromatic
2418,6-Aminoquinoline,C1=CC2=C(C=CC(=C2)N)N=C1,460.15,9,"[1, 6, 7]",3,True,CHN,aromatic
2419,Propanolamine,C(CN)CO,460.65,3,"[1, 6, 7, 8]",4,True,CHON,alcohol
2420,"Pyridine, 4-Ethyl-2,6-Dimethyl-",CCC1=CC(=NC(=C1)C)C,460.65,9,"[1, 6, 7]",3,True,CHN,aromatic
2421,"1-Butanamine, 3-Methyl-n-(3-Methylbutyl)-",CC(C)CCNCCC(C)C,461.15,10,"[1, 6, 7]",3,True,CHN,amine
2422,Diethylcyanamide,CCN(CC)C#N,461.15,5,"[1, 6, 7]",3,True,CHN,amine
2423,"2,4,5-Trimethylpyridine",CC1=CC(=NC=C1C)C,461.15,8,"[1, 6, 7]",3,True,CHN,aromatic
2424,"4-Piperidinamine, 2,2,6,6-Tetramethyl-",CC1(CC(CC(N1)(C)C)N)C,461.65,9,"[1, 6, 7]",3,True,CHN,amine
2425,Butyranilide,CCCC(=O)NC1=CC=CC=C1,462.15,10,"[1, 6, 7, 8]",4,True,CHON,aromatic
2426,"Pyrazine, 2-Methyl-3-Propyl-",CCCC1=NC=CN=C1C,462.15,8,"[1, 6, 7]",3,True,CHN,aromatic
2427,"1-Propanol, 3-(diethylamino)-",CCN(CC)CCCO,462.65,7,"[1, 6, 7, 8]",4,True,CHON,alcohol
2428,"Pyrazine, Tetramethyl-",CC1=C(N=C(C(=N1)C)C)C,463.15,8,"[1, 6, 7]",3,True,CHN,aromatic
2429,Cyclooctanamine,C1CCCC(CCC1)N,463.15,8,"[1, 6, 7]",3,True,CHN,amine
2430,2-(bis(1-Methylethyl)amino)ethanol,CC(C)N(CCO)C(C)C,463.15,8,"[1, 6, 7, 8]",4,True,CHON,alcohol
2431,Octyldimethylamine,CCCCCCCCN(C)C,464.15,10,"[1, 6, 7]",3,True,CHN,amine
2432,"Propanamide, N,n-Diethyl-",CCC(=O)N(CC)CC,464.15,7,"[1, 6, 7, 8]",4,True,CHON,amide
2433,Benzonitrile,C1=CC=C(C=C1)C#N,464.25,7,"[1, 6, 7]",3,True,CHN,aromatic
2434,"1-Propanamine, 2-Methyl-N,n-Bis(2-Methylpropyl)-",CC(C)CN(CC(C)C)CC(C)C,464.65,12,"[1, 6, 7]",3,True,CHN,amine
2435,"1,2-Ethanediamine, N,n,n',n'-Tetraethyl-",CCN(CC)CCN(CC)CC,465.15,10,"[1, 6, 7]",3,True,CHN,amine
2436,2-Acetylpyridine,CC(=O)C1=CC=CC=N1,465.15,7,"[1, 6, 7, 8]",4,True,CHON,aromatic
2437,"Pyridine, 2-Butyl-",CCCCC1=CC=CC=N1,465.15,9,"[1, 6, 7]",3,True,CHN,aromatic
2438,"2,3,4-Trimethylpyridine",CC1=C(C(=NC=C1)C)C,465.65,8,"[1, 6, 7]",3,True,CHN,aromatic
2439,Acrylamide,C=CC(=O)N,465.75,3,"[1, 6, 7, 8]",4,True,CHON,alkene
2440,"Cyclohexanamine, N,n-Diethyl-",CCN(CC)C1CCCCC1,466.15,10,"[1, 6, 7]",3,True,CHN,amine
2441,"N,n-Dimethylaniline",CN(C)C1=CC=CC=C1,466.15,8,"[1, 6, 7]",3,True,CHN,aromatic
2442,"Benzenemethanamine, N-Ethyl-",CCNCC1=CC=CC=C1,467.15,9,"[1, 6, 7]",3,True,CHN,aromatic
2443,"N,n-Dimethyl-o-Toluidine",CC1=CC=CC=C1N(C)C,467.25,9,"[1, 6, 7]",3,True,CHN,aromatic
2444,Bis(2-(dimethylamino)ethyl) Ether,CN(C)CCOCCN(C)C,467.95,8,"[1, 6, 7, 8]",4,True,CHON,ester
2445,"Acetamide, N-Acetyl-n-Methyl-",CC(=O)N(C)C(=O)C,468.15,5,"[1, 6, 7, 8]",4,True,CHON,amide
2446,"Benzenemethanamine, 4-Methyl-",CC1=CC=C(C=C1)CN,468.15,8,"[1, 6, 7]",3,True,CHN,aromatic
2447,"Pyridine, 2-(1-Ethylpropyl)-",CCC(CC)C1=CC=CC=N1,468.54999999999995,10,"[1, 6, 7]",3,True,CHN,aromatic
2448,"1h-Imidazole, 1-Methyl-",CN1C=CN=C1,468.65,4,"[1, 6, 7]",3,True,CHN,aromatic
2449,"Benzenamine, N,n,2,6-Tetramethyl-",CC1=C(C(=CC=C1)C)N(C)C,469.15,10,"[1, 6, 7]",3,True,CHN,aromatic
2450,2-Dimethylaminopyridine,CN(C)C1=CC=CC=N1,469.15,7,"[1, 6, 7]",3,True,CHN,aromatic
2451,2-Dipropylamino-Ethanol,CCCN(CCC)CCO,469.15,8,"[1, 6, 7, 8]",4,True,CHON,alcohol
2452,"Ethanamine, N-(phenylmethylene)-",CCN=CC1=CC=CC=C1,469.15,9,"[1, 6, 7]",3,True,CHN,aromatic
2453,"1,2-Ethanediamine, N,n'-Bis(1,1-Dimethylethyl)-",CC(C)(C)NCCNC(C)(C)C,470.15,10,"[1, 6, 7]",3,True,CHN,amine
2454,N-Methylaniline,CNC1=CC=CC=C1,469.34999999999997,7,"[1, 6, 7]",3,True,CHN,aromatic
2455,4-(tert-Butyl)pyridine,CC(C)(C)C1=CC=NC=C1,469.65,9,"[1, 6, 7]",3,True,CHN,aromatic
2456,N-Acetyl-n-Ethyl-Acetamide,CCN(C(=O)C)C(=O)C,470.15,6,"[1, 6, 7, 8]",4,True,CHON,amide
2457,2-Phenylethylamine,C1=CC=C(C=C1)CCN,470.65,8,"[1, 6, 7]",3,True,CHN,aromatic
2458,N-Formylethylamine,CCNC=O,471.15,3,"[1, 6, 7, 8]",4,True,CHON,amide
2459,"Pyridine, 3-Ethyl-4-Methyl-",CCC1=C(C=CN=C1)C,471.15,8,"[1, 6, 7]",3,True,CHN,aromatic
2460,"3,5-Dimethyl-2-Ethylpyridine",CCC1=C(C=C(C=N1)C)C,471.15,9,"[1, 6, 7]",3,True,CHN,aromatic
2461,"Piperidine, 1-Pentyl-",CCCCCN1CCCCC1,471.34999999999997,10,"[1, 6, 7]",3,True,CHN,amine
2462,2-Isobutylamino-Ethanol,CC(C)CNCCO,472.15,6,"[1, 6, 7, 8]",4,True,CHON,alcohol
2463,"Ethanol, 2-(butylamino)-",CCCCNCCO,472.15,6,"[1, 6, 7, 8]",4,True,CHON,alcohol
2464,"1h-Pyrrole, 3-Ethyl-2,4-Dimethyl-",CCC1=C(NC=C1C)C,472.15,8,"[1, 6, 7]",3,True,CHN,aromatic
2465,Methylformamide,CNC=O,472.65,2,"[1, 6, 7, 8]",4,True,CHON,amide
2466,Trimethylamine,CN(C)C,276.02,3,"[1, 6, 7]",3,True,CHN,amine
2467,"Benzenemethanamine, N-(1-Methylethyl)-",CC(C)NCC1=CC=CC=C1,473.15,10,"[1, 6, 7]",3,True,CHN,aromatic
2468,Phenyldiethanolamine,C1=CC=C(C=C1)N(CCO)CCO,473.15,10,"[1, 6, 7, 8]",4,True,CHON,aromatic
2469,(acetyloxy)acetonitrile,CC(=O)OCC#N,473.15,4,"[1, 6, 7, 8]",4,True,CHON,ester
2470,"4-Piperidinol, 1-Methyl-",CN1CCC(CC1)O,473.15,6,"[1, 6, 7, 8]",4,True,CHON,alcohol
2471,4-Piperidinemethanamine,C1CNCCC1CN,473.15,6,"[1, 6, 7]",3,True,CHN,amine
2472,Dimetilan,CC1=CC(=NN1C(=O)N(C)C)OC(=O)N(C)C,478.15,10,"[1, 6, 7, 8]",4,True,CHON,ester
2473,O-Toluidine,CC1=CC=CC=C1N,473.45,7,"[1, 6, 7]",3,True,CHN,aromatic
2474,P-Toluidine,CC1=CC=C(C=C1)N,473.54999999999995,7,"[1, 6, 7]",3,True,CHN,aromatic
2475,Methyl Cyanoacetate,COC(=O)CC#N,473.65,4,"[1, 6, 7, 8]",4,True,CHON,ester
2476,2-Methylaminopyridine,CNC1=CC=CC=N1,473.65,6,"[1, 6, 7]",3,True,CHN,aromatic
2477,"Benzoxazole, 2-Methyl-",CC1=NC2=CC=CC=C2O1,473.65,8,"[1, 6, 7, 8]",4,True,CHON,aromatic
2478,"1,4-Pentanediamine, N1,n1-Diethyl-",CCN(CC)CCCC(C)N,474.15,9,"[1, 6, 7]",3,True,CHN,amine
2479,N-Tert-Butylformamide,CC(C)(C)NC=O,475.15,5,"[1, 6, 7, 8]",4,True,CHON,amide
2480,N-Methylpyrrolidone,CN1CCCC1=O,475.15,5,"[1, 6, 7, 8]",4,True,CHON,amide
2481,2-Piperidineethanol,C1CCNC(C1)CCO,475.15,7,"[1, 6, 7, 8]",4,True,CHON,alcohol
2482,1-Piperidine Ethanol,C1CCN(CC1)CCO,475.15,7,"[1, 6, 7, 8]",4,True,CHON,alcohol
2483,N-Nonylamine,CCCCCCCCCN,475.34999999999997,9,"[1, 6, 7]",3,True,CHN,amine
2484,Dipentylamine,CCCCCNCCCCC,475.65,10,"[1, 6, 7]",3,True,CHN,amine
2485,"Pyridine, 2-(2-Methoxyethyl)-",COCCC1=CC=CC=N1,476.15,8,"[1, 6, 7, 8]",4,True,CHON,ester
2486,"Pyridine, 2,3,4,6-Tetramethyl-",CC1=CC(=NC(=C1C)C)C,476.15,9,"[1, 6, 7]",3,True,CHN,aromatic
2487,"Benzenamine, N-(1-Methylethyl)-",CC(C)NC1=CC=CC=C1,476.15,9,"[1, 6, 7]",3,True,CHN,aromatic
2488,Alpha-Methylphenethylamine,CC(CC1=CC=CC=C1)N,476.15,9,"[1, 6, 7]",3,True,CHN,aromatic
2489,N-Ethylaniline,CCNC1=CC=CC=C1,476.15,8,"[1, 6, 7]",3,True,CHN,aromatic
2490,M-Toluidine,CC1=CC(=CC=C1)N,476.45,7,"[1, 6, 7]",3,True,CHN,aromatic
2491,"Benzenemethanamine, 3-Methyl-",CC1=CC(=CC=C1)CN,476.65,8,"[1, 6, 7]",3,True,CHN,aromatic
2492,Diglycidylaniline,C1C(O1)CN(CC2CO2)C3=CC=CC=C3,477.15,12,"[1, 6, 7, 8]",4,True,CHON,ester
2493,"2h-1,2,3-Triazole",C1=NNN=C1,477.15,2,"[1, 6, 7]",3,True,CHN,aromatic
2494,3-Methyl-1h-Pyrazole,CC1=CC=NN1,477.15,4,"[1, 6, 7]",3,True,CHN,aromatic
2495,"Nicotinic Acid, Methyl Ester",COC(=O)C1=CN=CC=C1,477.15,7,"[1, 6, 7, 8]",4,True,CHON,ester
2496,"Benzenamine, N-Ethyl-n-Methyl-",CCN(C)C1=CC=CC=C1,477.15,9,"[1, 6, 7]",3,True,CHN,aromatic
2497,"1,8-Naphthalenediamine",C1=CC2=C(C(=C1)N)C(=CC=C2)N,478.15,10,"[1, 6, 7]",3,True,CHN,aromatic
2498,Phentermine,CC(C)(CC1=CC=CC=C1)N,478.15,10,"[1, 6, 7]",3,True,CHN,aromatic
2499,Propylhexedrine,CC(CC1CCCCC1)NC,478.15,10,"[1, 6, 7]",3,True,CHN,amine
2500,"1,3-Propanediamine, N,n-Dibutyl-",CCCCN(CCCC)CCCN,478.15,11,"[1, 6, 7]",3,True,CHN,amine
2501,N-Methylacetamide,CC(=O)NC,478.15,3,"[1, 6, 7, 8]",4,True,CHON,amide
2502,"Acetamide, N-Ethyl-",CCNC(=O)C,478.15,4,"[1, 6, 7, 8]",4,True,CHON,amide
2503,Ethyl Cyanoacetate,CCOC(=O)CC#N,478.15,5,"[1, 6, 7, 8]",4,True,CHON,ester
2504,4-Morpholineethanamine,C1COCCN1CCN,478.15,6,"[1, 6, 7, 8]",4,True,CHON,ester
2505,Hexamethylene Diamine,C(CCCN)CCN,478.15,6,"[1, 6, 7]",3,True,CHN,amine
2506,"Propanenitrile, 3,3'-Iminobis-",C(CNCCC#N)C#N,478.15,6,"[1, 6, 7]",3,True,CHN,amine
2507,2-Methylbenzonitrile,CC1=CC=CC=C1C#N,478.15,8,"[1, 6, 7]",3,True,CHN,aromatic
2508,Indolizine,C1=CC2=CC=CN2C=C1,478.15,8,"[1, 6, 7]",3,True,CHN,aromatic
2509,"4-Piperidinone, 2,2,6,6-Tetramethyl-",CC1(CC(=O)CC(N1)(C)C)C,478.15,9,"[1, 6, 7, 8]",4,True,CHON,ketone
2510,4-(2-Aminoethyl)phenol,C1=CC(=CC=C1CCN)O,479.15,8,"[1, 6, 7, 8]",4,True,CHON,alcohol
2511,"1h-Pyrazole, 4-Methyl-",CC1=CNN=C1,479.15,4,"[1, 6, 7]",3,True,CHN,aromatic
2512,"1h-Imidazole, 1,2-Dimethyl-",CC1=NC=CN1C,479.15,5,"[1, 6, 7]",3,True,CHN,aromatic
2513,"Benzenemethanamine, 2-Methyl-",CC1=CC=CC=C1CN,479.15,8,"[1, 6, 7]",3,True,CHN,aromatic
2514,"Butanamide, N,n-Diethyl-",CCCC(=O)N(CC)CC,479.15,8,"[1, 6, 7, 8]",4,True,CHON,amide
2515,"Benzeneacetonitrile, .alpha.-Oxo-",C1=CC=C(C=C1)C(=O)C#N,479.15,8,"[1, 6, 7, 8]",4,True,CHON,aromatic
2516,"Benzeneethanamine, N-Methyl-",CNCCC1=CC=CC=C1,479.15,9,"[1, 6, 7]",3,True,CHN,aromatic
2517,"Benzenamine, N,3-Dimethyl-",CC1=CC(=CC=C1)NC,479.65,8,"[1, 6, 7]",3,True,CHN,aromatic
2518,"Pyridine, 3-Butyl-",CCCCC1=CN=CC=C1,479.65,9,"[1, 6, 7]",3,True,CHN,aromatic
2519,3-Cyanopyridine,C1=CC(=CN=C1)C#N,480.04999999999995,6,"[1, 6, 7]",3,True,CHN,aromatic
2520,Diethylenetriamine,C(CNCCN)N,480.15,4,"[1, 6, 7]",3,True,CHN,amine
2521,"Carbamic Acid, 2-Methylpropyl Ester",CC(C)COC(=O)N,480.15,5,"[1, 6, 7, 8]",4,True,CHON,ester
2522,N-Methyl-o-Toluidine,CC1=CC=CC=C1NC,480.65,8,"[1, 6, 7]",3,True,CHN,aromatic
2523,Vancide-Th,CCN1CN(CN(C1)CC)CC,480.65,9,"[1, 6, 7]",3,True,CHN,amine
2524,Pyridazine,C1=CC=NN=C1,481.15,4,"[1, 6, 7]",3,True,CHN,aromatic
2525,"1h-Imidazole, 1-Ethyl-",CCN1C=CN=C1,481.15,5,"[1, 6, 7]",3,True,CHN,aromatic
2526,"2-Pyridinamine, 6-Methyl-",CC1=NC(=CC=C1)N,481.65,6,"[1, 6, 7]",3,True,CHN,aromatic
2527,"Benzenamine, N,n-Diethyl-2-Methyl-",CCN(CC)C1=CC=CC=C1C,482.15,11,"[1, 6, 7]",3,True,CHN,aromatic
2528,Arecoline,CN1CCC=C(C1)C(=O)OC,482.15,8,"[1, 6, 7, 8]",4,True,CHON,ester
2529,"Pyridine, 4-Butyl-",CCCCC1=CC=NC=C1,482.15,9,"[1, 6, 7]",3,True,CHN,aromatic
2530,"Urea, Tetraethyl-",CCN(CC)C(=O)N(CC)CC,482.15,9,"[1, 6, 7, 8]",4,True,CHON,amide
2531,1h-Imidazole-4-Ethanamine,C1=C(NC=N1)CCN,482.65,5,"[1, 6, 7]",3,True,CHN,aromatic
2532,"1,6-Hexanediamine, N,n,n',n'-Tetramethyl-",CN(C)CCCCCCN(C)C,482.65,10,"[1, 6, 7]",3,True,CHN,amine
2533,"Acetamide, N,n-Dipropyl-",CCCN(CCC)C(=O)C,482.65,8,"[1, 6, 7, 8]",4,True,CHON,amide
2534,O-Ethylaniline,CCC1=CC=CC=C1N,482.79999999999995,8,"[1, 6, 7]",3,True,CHN,aromatic
2535,N-Methyl P-Toluidine,CC1=CC=C(C=C1)NC,483.15,8,"[1, 6, 7]",3,True,CHN,aromatic
2536,"1h-Benzotriazole, 5-Methyl-",CC1=CC2=NNN=C2C=C1,484.15,7,"[1, 6, 7]",3,True,CHN,aromatic
2537,2-Aminopyridine,C1=CC=NC(=C1)N,483.75,5,"[1, 6, 7]",3,True,CHN,aromatic
2538,"Propanoic Acid, 3-Cyano-, Methyl Ester",COC(=O)CCC#N,484.15,5,"[1, 6, 7, 8]",4,True,CHON,ester
2539,"N,n,4-Trimethylaniline",CC1=CC=C(C=C1)N(C)C,484.15,9,"[1, 6, 7]",3,True,CHN,aromatic
2540,Isovaleryl Diethylamide,CCN(CC)C(=O)CC(C)C,484.15,9,"[1, 6, 7, 8]",4,True,CHON,amide
2541,4-Acetylpyridine,CC(=O)C1=CC=NC=C1,485.15,7,"[1, 6, 7, 8]",4,True,CHON,aromatic
2542,"Benzonitrile, 3-Methyl-",CC1=CC(=CC=C1)C#N,486.15,8,"[1, 6, 7]",3,True,CHN,aromatic
2543,4-Cyanopyridine,C1=CN=CC=C1C#N,486.65,6,"[1, 6, 7]",3,True,CHN,aromatic
2544,"Morpholine, 4-Butyl-",CCCCN1CCOCC1,486.65,8,"[1, 6, 7, 8]",4,True,CHON,ester
2545,"N,n,2,4,6-Pentamethylaniline",CC1=CC(=C(C(=C1)C)N(C)C)C,487.15,11,"[1, 6, 7]",3,True,CHN,aromatic
2546,"Pyridazine, 3-Methyl-",CC1=NN=CC=C1,487.15,5,"[1, 6, 7]",3,True,CHN,aromatic
2547,"2,5-Dimethylaniline",CC1=CC(=C(C=C1)C)N,487.15,8,"[1, 6, 7]",3,True,CHN,aromatic
2548,M-Ethylaniline,CCC1=CC(=CC=C1)N,487.15,8,"[1, 6, 7]",3,True,CHN,aromatic
2549,"2,4-Dimethylaniline",CC1=CC(=C(C=C1)N)C,487.15,8,"[1, 6, 7]",3,True,CHN,aromatic
2550,"Methanimidic Acid, N-Phenyl-, Ethyl Ester",CCOC=NC1=CC=CC=C1,487.15,9,"[1, 6, 7, 8]",4,True,CHON,ester
2551,"Benzeneethanamine, 4-Methyl-",CC1=CC=C(C=C1)CCN,487.15,9,"[1, 6, 7]",3,True,CHN,aromatic
2552,"2,6-Dimethylaniline",CC1=C(C(=CC=C1)C)N,488.15,8,"[1, 6, 7]",3,True,CHN,aromatic
2553,"1,4-Piperazinediethanol",C1CN(CCN1CCO)CCO,490.65,8,"[1, 6, 7, 8]",4,True,CHON,alcohol
2554,"1,2-Benzenediamine, N,n,n',n'-Tetramethyl-",CN(C)C1=CC=CC=C1N(C)C,488.65,10,"[1, 6, 7]",3,True,CHN,aromatic
2555,"Pyridine, 2-(3-Pentenyl)-",C/C=C/CCC1=CC=CC=N1,489.15,10,"[1, 6, 7]",3,True,CHN,alkene
2556,Butyramide,CCCC(=O)N,489.15,4,"[1, 6, 7, 8]",4,True,CHON,amide
2557,"Benzenamine, N-Ethyl-2-Methyl-",CCNC1=CC=CC=C1C,489.15,9,"[1, 6, 7]",3,True,CHN,aromatic
2558,"N,n-Diethylaniline",CCN(CC)C1=CC=CC=C1,489.45,10,"[1, 6, 7]",3,True,CHN,aromatic
2559,"Benzoic Acid, 3,4-Diamino-",C1=CC(=C(C=C1C(=O)O)N)N,489.65,7,"[1, 6, 7, 8]",4,True,CHON,carboxylic_acid
2560,"Pyridine, 4-(1-Ethylpropyl)-",CCC(CC)C1=CC=NC=C1,490.15,10,"[1, 6, 7]",3,True,CHN,aromatic
2561,"2-Pyrrolidinone, 1,5-Dimethyl-",CC1CCC(=O)N1C,490.15,6,"[1, 6, 7, 8]",4,True,CHON,amide
2562,"Benzenamine, N-Ethyl-4-Methyl-",CCNC1=CC=C(C=C1)C,490.15,9,"[1, 6, 7]",3,True,CHN,aromatic
2563,4-Methylbenzonitrile,CC1=CC=C(C=C1)C#N,490.15,8,"[1, 6, 7]",3,True,CHN,aromatic
2564,P-Ethylaniline,CCC1=CC=C(C=C1)N,490.65,8,"[1, 6, 7]",3,True,CHN,aromatic
2565,"Propanamide, 2-Methyl-",CC(C)C(=O)N,491.15,4,"[1, 6, 7, 8]",4,True,CHON,amide
2566,Pyrrole-2-Carboxaldehyde,C1=CNC(=C1)C=O,491.15,5,"[1, 6, 7, 8]",4,True,CHON,aromatic
2567,"1h-Pyrazole, 3,5-Dimethyl-",CC1=CC(=NN1)C,491.15,5,"[1, 6, 7]",3,True,CHN,aromatic
2568,1-Acetyl-Piperidin-4-One,CC(=O)N1CCC(=O)CC1,491.15,7,"[1, 6, 7, 8]",4,True,CHON,amide
2569,"1,2-Benzenediamine, N,n-Dimethyl-",CN(C)C1=CC=CC=C1N,491.15,8,"[1, 6, 7]",3,True,CHN,aromatic
2570,"5,6,7,8-Tetrahydro-Isoquinoline",C1CCC2=C(C1)C=CN=C2,491.15,9,"[1, 6, 7]",3,True,CHN,aromatic
2571,2-(2-Aminoethoxy)ethanol,C(COCCO)N,494.15,4,"[1, 6, 7, 8]",4,True,CHON,ester
2572,"Benzoxazole, 2,5-Dimethyl-",CC1=CC2=C(C=C1)OC(=N2)C,491.65,9,"[1, 6, 7, 8]",4,True,CHON,aromatic
2573,"Ethanol, 2-Hydrazino-",C(CO)NN,492.15,2,"[1, 6, 7, 8]",4,True,CHON,alcohol
2574,Aminotris(hydroxymethyl)methane,C(C(CO)(CO)N)O,492.65,4,"[1, 6, 7, 8]",4,True,CHON,alcohol
2575,"Isonicotinic Acid, Ethyl Ester",CCOC(=O)C1=CC=NC=C1,492.65,8,"[1, 6, 7, 8]",4,True,CHON,ester
2576,"Hydrazine, 1,1-Diphenyl-",C1=CC=C(C=C1)N(C2=CC=CC=C2)N,493.15,12,"[1, 6, 7]",3,True,CHN,aromatic
2577,"1,6-Hexanediamine, N-(6-Aminohexyl)-",C(CCCNCCCCCCN)CCN,493.15,12,"[1, 6, 7]",3,True,CHN,amine
2578,1-Piperazineethanamine,C1CN(CCN1)CCN,493.15,6,"[1, 6, 7]",3,True,CHN,amine
2579,2-Acetylpyrrole,CC(=O)C1=CC=CN1,493.15,6,"[1, 6, 7, 8]",4,True,CHON,aromatic
2580,4-Morpholinepropanamine,C1COCCN1CCCN,493.15,7,"[1, 6, 7, 8]",4,True,CHON,ester
2581,3-Acetylpyridine,CC(=O)C1=CN=CC=C1,493.15,7,"[1, 6, 7, 8]",4,True,CHON,aromatic
2582,"1,3-Cyclohexanedimethanamine",C1CC(CC(C1)CN)CN,493.15,8,"[1, 6, 7]",3,True,CHN,amine
2583,Formamide,C(=O)N,493.15,1,"[1, 6, 7, 8]",4,True,CHON,amide
2584,N-Decylamine,CCCCCCCCCCN,493.65,10,"[1, 6, 7]",3,True,CHN,amine
2585,"3,5-Dimethylaniline",CC1=CC(=CC(=C1)N)C,493.65,8,"[1, 6, 7]",3,True,CHN,aromatic
2586,Ethylene Cyanohydrin,C(CO)C#N,494.15,3,"[1, 6, 7, 8]",4,True,CHON,alcohol
2587,"1,3-Dimethyl-2-Imidazolidinone",CN1CCN(C1=O)C,494.15,5,"[1, 6, 7, 8]",4,True,CHON,amide
2588,"2,4 Diaminoanisole",COC1=C(C=C(C=C1)N)N,494.15,7,"[1, 6, 7, 8]",4,True,CHON,ester
2589,"Benzenamine, 2-(1-Methylethyl)-",CC(C)C1=CC=CC=C1N,494.15,9,"[1, 6, 7]",3,True,CHN,aromatic
2590,"Benzenamine, N-Ethyl-3-Methyl-",CCNC1=CC=CC(=C1)C,494.15,9,"[1, 6, 7]",3,True,CHN,aromatic
2591,5-Aminopentanol,C(CCN)CCO,494.65,5,"[1, 6, 7, 8]",4,True,CHON,alcohol
2592,"2,3-Dimethylaniline",CC1=C(C(=CC=C1)N)C,494.65,8,"[1, 6, 7]",3,True,CHN,aromatic