,Name,SMILES,Tb,C Atom,Atom,Count Unique Atom,Pass Screen,Atom2,Func. Group
3956,3-hydroxy-2-(hydroxymethyl)-2-methylpropanoic acid,CC(CO)(CO)C(=O)O,640.64,5,"[1, 6, 8]",3,True,CHO,alcohol
3957,ethyl (2E)-2-cyano-2-hydroxyiminoacetate,CCOC(=O)/C(=N/O)/C#N,643.04,5,"[1, 6, 7, 8]",4,True,CHON,ester
3958,2-hydroxyethyl propanoate,CCC(=O)OCCO,645.27,5,"[1, 6, 8]",3,True,CHO,ester
3959,2-hydroxy-2-(prop-2-enoylamino)acetic acid,C=CC(=O)NC(C(=O)O)O,651.97,5,"[1, 6, 7, 8]",4,True,CHON,carboxylic_acid
3960,"1,3-bis(2-hydroxyethyl)urea",C(CO)NC(=O)NCCO,652.57,5,"[1, 6, 7, 8]",4,True,CHON,alcohol
3961,(2S)-2-amino-2-methylbutanedioic acid,C[C@](CC(=O)O)(C(=O)O)N,674.32,5,"[1, 6, 7, 8]",4,True,CHON,carboxylic_acid
3962,2-amino-5-hydroxy-4-oxopentanoic acid,C(C(C(=O)O)N)C(=O)CO,677.65,5,"[1, 6, 7, 8]",4,True,CHON,carboxylic_acid
3963,2-hydroxy-2-methylbutanedioic acid,CC(CC(=O)O)(C(=O)O)O,693.97,5,"[1, 6, 8]",3,True,CHO,alcohol
3964,(2R)-2-hydroxy-2-methylbutanedioic acid,C[C@@](CC(=O)O)(C(=O)O)O,693.97,5,"[1, 6, 8]",3,True,CHO,alcohol
3965,"2-(2,5-dioxoimidazolidin-4-yl)acetic acid",C(C1C(=O)NC(=O)N1)C(=O)O,707.53,5,"[1, 6, 7, 8]",4,True,CHON,carboxylic_acid
3966,butanedioyl dicyanide,C(CC(=O)C#N)C(=O)C#N,274.35,6,"[1, 6, 7, 8]",4,True,CHON,ketone
3967,2-methylidenepentanenitrile,CCCC(=C)C#N,276.7785,6,"[1, 6, 7]",3,True,CHN,alkene
3968,cyclohexyl nitrite,C1CCC(CC1)ON=O,304.15,6,"[1, 6, 7, 8]",4,True,CHON,ester
3969,[nitroso(propan-2-yl)amino]methyl acetate,CC(C)N(COC(=O)C)N=O,307.95,6,"[1, 6, 7, 8]",4,True,CHON,ester
3970,2-amino-3-hydroxy-9-methylpurin-6-one,CN1C=NC2=C1N(C(=NC2=O)N)O,319.55,6,"[1, 6, 7, 8]",4,True,CHON,aromatic
3971,N-(2-hydroxypropyl)-N-(2-oxopropyl)nitrous amide,CC(CN(CC(=O)C)N=O)O,319.75,6,"[1, 6, 7, 8]",4,True,CHON,alcohol
3972,"(E)-hex-3-en-1,5-diyne",C#C/C=C/C#C,321.28,6,"[1, 6]",2,True,CH,alkene
3973,"(Z)-hex-3-en-1,5-diyne",C#C/C=C\C#C,321.28,6,"[1, 6]",2,True,CH,alkene
3974,"3,6-dihydro-2H-pyran-5-carbaldehyde",C1COCC(=C1)C=O,322.35,6,"[1, 6, 8]",3,True,CHO,ester
3975,"3-methylpenta-1,4-diene",CC(C=C)C=C,325.15,6,"[1, 6]",2,True,CH,alkene
3976,"1,3-dimethylbicyclo[1.1.0]butane",CC12CC1(C2)C,327.45,6,"[1, 6]",2,True,CH,alkane
3977,"2,2-diethoxyacetonitrile",CCOC(C#N)OCC,328.65,6,"[1, 6, 7, 8]",4,True,CHON,ester
3978,prismane,C12C3C1C4C2C34,328.88,6,"[1, 6]",2,True,CH,alkane
3979,hex-4-en-1-yne,CC=CCC#C,331.16,6,"[1, 6]",2,True,CH,alkene
3980,4-methylpent-2-ene,CC=CC(C)C,332.15,6,"[1, 6]",2,True,CH,alkene
3981,"1,3-dimethylcyclobutane",CC1CC(C1)C,332.4,6,"[1, 6]",2,True,CH,alkane
3982,N-nitroso-N-propylpropanamide,CCCN(C(=O)CC)N=O,332.5,6,"[1, 6, 7, 8]",4,True,CHON,amide
3983,bicyclo[2.1.1]hex-2-ene,C1C2CC1C=C2,334.15,6,"[1, 6]",2,True,CH,alkene
3984,3-methylidenepent-1-yne,CCC(=C)C#C,335.15,6,"[1, 6]",2,True,CH,alkene
3985,"2-(4,5-dihydro-1,3-oxazol-2-yl)propan-1-ol",CC(CO)C1=NCCO1,335.15,6,"[1, 6, 7, 8]",4,True,CHON,ester
3986,1-ethenyl-2-methylcyclopropane,CC1CC1C=C,335.63,6,"[1, 6]",2,True,CH,alkene
3987,"hexa-1,3-diyne",CCC#CC#C,336.0,6,"[1, 6]",2,True,CH,alkyne
3988,2-methyloxolane-2-carbonitrile,CC1(CCCO1)C#N,336.15,6,"[1, 6, 7, 8]",4,True,CHON,ester
3989,3-hydroxy-2-imino-1-methyl-7H-purin-6-one,CN1C(=O)C2=C(N=CN2)N(C1=N)O,336.15,6,"[1, 6, 7, 8]",4,True,CHON,aromatic
3990,ethynylcyclobutane,C#CC1CCC1,338.01,6,"[1, 6]",2,True,CH,alkyne
3991,"pyrrolo[3,4-b]pyrazine-5,7-dione",C1=CN=C2C(=N1)C(=O)NC2=O,338.65,6,"[1, 6, 7, 8]",4,True,CHON,aromatic
3992,"tricyclo[3.1.0.02,6]hex-3-ene",C1=CC2C3C1C23,338.78,6,"[1, 6]",2,True,CH,alkene
3993,"tricyclo[3.1.0.02,6]hexane",C1CC2C3C1C23,339.62,6,"[1, 6]",2,True,CH,alkane
3994,3-ethenyl-3-methylcyclopropene,CC1(C=C1)C=C,339.7,6,"[1, 6]",2,True,CH,alkene
3995,1-ethenyl-1-methylcyclopropane,CC1(CC1)C=C,340.54,6,"[1, 6]",2,True,CH,alkene
3996,piperidine-1-carboxamide,C1CCN(CC1)C(=O)N,341.15,6,"[1, 6, 7, 8]",4,True,CHON,amide
3997,3-methylpent-2-ene,CCC(=CC)C,342.15,6,"[1, 6]",2,True,CH,alkene
3998,2-methylpent-1-en-3-yne,CC#CC(=C)C,342.44,6,"[1, 6]",2,True,CH,alkene
3999,"1,1-dimethyl-2-methylidenecyclopropane",CC1(CC1=C)C,343.02,6,"[1, 6]",2,True,CH,alkene
4000,hex-1-en-5-yne,C=CCCC#C,343.15,6,"[1, 6]",2,True,CH,alkene
4001,"(E)-N,N-dimethylbut-1-en-3-yn-1-amine",CN(C)/C=C/C#C,343.6,6,"[1, 6, 7]",3,True,CHN,alkene
4002,ethenylcyclobutane,C=CC1CCC1,344.57,6,"[1, 6]",2,True,CH,alkene
4003,"1-methoxy-2,2-dimethylpropane",CC(C)(C)COC,345.15,6,"[1, 6, 8]",3,True,CHO,ester
4004,"1,2,3-trimethylidenecyclopropane",C=C1C(=C)C1=C,345.77,6,"[1, 6]",2,True,CH,alkene
4005,"1-methylcyclopenta-1,3-diene",CC1=CC=CC1,345.93,6,"[1, 6]",2,True,CH,alkene
4006,"2,3-diethynyloxirane",C#CC1C(O1)C#C,346.14,6,"[1, 6, 8]",3,True,CHO,ester
4007,(E)-hex-3-en-1-yne,CC/C=C/C#C,346.15,6,"[1, 6]",2,True,CH,alkene
4008,"2-methylcyclopenta-1,3-diene",CC1=CCC=C1,346.65,6,"[1, 6]",2,True,CH,alkene
4009,[(E)-prop-1-enyl]cyclopropane,C/C=C/C1CC1,347.78,6,"[1, 6]",2,True,CH,alkene
4010,"1,3,3-trimethylcyclopropene",CC1=CC1(C)C,348.0,6,"[1, 6]",2,True,CH,alkene
4011,"bicyclo[2.2.0]hexa-2,5-diene",C1=CC2C1C=C2,348.68,6,"[1, 6]",2,True,CH,alkene
4012,3-cycloprop-2-en-1-ylcyclopropene,C1=CC1C2C=C2,348.68,6,"[1, 6]",2,True,CH,alkene
4013,"(3E)-2-methylpenta-1,3-diene",C/C=C/C(=C)C,348.715,6,"[1, 6]",2,True,CH,alkene
4014,bicyclo[3.1.0]hex-2-ene,C1C=CC2C1C2,349.52,6,"[1, 6]",2,True,CH,alkene
4015,bicyclo[2.2.0]hex-2-ene,C1CC2C1C=C2,349.52,6,"[1, 6]",2,True,CH,alkene
4016,"(3E)-3-methylpenta-1,3-diene",C/C=C(\C)/C=C,350.15,6,"[1, 6]",2,True,CH,alkene
4017,"5-methylcyclopenta-1,3-diene",CC1C=CC=C1,350.48,6,"[1, 6]",2,True,CH,alkene
4018,"(3E)-hexa-1,3,5-triene",C=C/C=C/C=C,350.65,6,"[1, 6]",2,True,CH,alkene
4019,2-(furan-2-yl)acetonitrile,C1=COC(=C1)CC#N,350.65,6,"[1, 6, 7, 8]",4,True,CHON,aromatic
4020,1-pyrazin-2-ylethanone,CC(=O)C1=NC=CN=C1,352.65,6,"[1, 6, 7, 8]",4,True,CHON,aromatic
4021,hex-3-yn-2-ol,CCC#CC(C)O,353.15,6,"[1, 6, 8]",3,True,CHO,alkyne
4022,"N,N,2-trimethylprop-1-en-1-amine",CC(=CN(C)C)C,353.36,6,"[1, 6, 7]",3,True,CHN,alkene
4023,"hexa-1,3,5-triyne",C#CC#CC#C,353.39,6,"[1, 6]",2,True,CH,alkyne
4024,"(E)-N,N-dimethylbut-1-en-1-amine",CC/C=C/N(C)C,353.48,6,"[1, 6, 7]",3,True,CHN,alkene
4025,(E)-1-ethoxybut-1-en-3-yne,CCO/C=C/C#C,353.58,6,"[1, 6, 8]",3,True,CHO,ester
4026,2-ethenoxybutane,CCC(C)OC=C,354.15,6,"[1, 6, 8]",3,True,CHO,ester
4027,fulvene,C=C1C=CC=C1,354.31,6,"[1, 6]",2,True,CH,alkene
4028,spiro[2.3]hex-1-ene,C1CC2(C1)C=C2,354.43,6,"[1, 6]",2,True,CH,alkene
4029,propan-2-ylidenecyclopropane,CC(=C1CC1)C,354.81,6,"[1, 6]",2,True,CH,alkene
4030,3-methylidenecyclopentene,C=C1CCC=C1,355.15,6,"[1, 6]",2,True,CH,alkene
4031,spiro[2.3]hexane,C1CC2(C1)CC2,355.27,6,"[1, 6]",2,True,CH,alkane
4032,2-methoxy-3-methylbut-1-ene,CC(C)C(=C)OC,355.42,6,"[1, 6, 8]",3,True,CHO,ester
4033,"N,N,2-trimethylprop-2-en-1-amine",CC(=C)CN(C)C,355.65,6,"[1, 6, 7]",3,True,CHN,alkene
4034,1-methyl-3-methylidenecyclobutene,CC1=CC(=C)C1,355.86,6,"[1, 6]",2,True,CH,alkene
4035,2-methoxypent-1-ene,CCCC(=C)OC,355.86,6,"[1, 6, 8]",3,True,CHO,ester
4036,2-methoxy-3-methylbutane,CC(C)C(C)OC,356.15,6,"[1, 6, 8]",3,True,CHO,ester
4037,4-hydroxycyclohexan-1-one,C1CC(=O)CCC1O,357.15,6,"[1, 6, 8]",3,True,CHO,alcohol
4038,"1-N,1-N,1-N',1-N'-tetramethylethene-1,1-diamine",CN(C)C(=C)N(C)C,358.32,6,"[1, 6, 7]",3,True,CHN,alkene
4039,2-(tert-butylamino)acetonitrile,CC(C)(C)NCC#N,358.65,6,"[1, 6, 7]",3,True,CHN,amine
4040,2-tert-butyloxirane,CC(C)(C)C1CO1,359.15,6,"[1, 6, 8]",3,True,CHO,ester
4041,"(1E)-1-ethoxybuta-1,3-diene",CCO/C=C/C=C,360.14,6,"[1, 6, 8]",3,True,CHO,ester
4042,(E)-3-methoxy-2-(methoxymethyl)prop-2-enenitrile,COC/C(=C/OC)/C#N,360.15,6,"[1, 6, 7, 8]",4,True,CHON,ester
4043,hex-1-en-4-yne,CC#CCC=C,360.15,6,"[1, 6]",2,True,CH,alkene
4044,1-(2-methylprop-1-enyl)aziridine,CC(=CN1CC1)C,360.5,6,"[1, 6, 7]",3,True,CHN,alkene
4045,1-[(E)-but-1-enyl]aziridine,CC/C=C/N1CC1,360.62,6,"[1, 6, 7]",3,True,CHN,alkene
4046,1-[(Z)-but-1-enyl]aziridine,CC/C=C\N1CC1,360.62,6,"[1, 6, 7]",3,True,CHN,alkene
4047,3-methoxypentane,CCC(CC)OC,361.15,6,"[1, 6, 8]",3,True,CHO,ester
4048,"2-N-cyclopropyl-1,3,5-triazine-2,4,6-triamine",C1CC1NC2=NC(=NC(=N2)N)N,361.45,6,"[1, 6, 7]",3,True,CHN,aromatic
4049,"1,2-dimethylcyclobutene",CC1=C(CC1)C,361.68,6,"[1, 6]",2,True,CH,alkene
4050,(Z)-1-propan-2-yloxyprop-1-ene,C/C=C\OC(C)C,363.02,6,"[1, 6, 8]",3,True,CHO,ester
4051,(E)-1-methoxy-3-methylbut-1-ene,CC(C)/C=C/OC,363.02,6,"[1, 6, 8]",3,True,CHO,ester
4052,"N,N,2-trimethylpropan-2-amine",CC(C)(C)N(C)C,363.04752,6,"[1, 6, 7]",3,True,CHN,amine
4053,2-methoxy-3-methylbut-2-ene,CC(=C(C)OC)C,363.22,6,"[1, 6, 8]",3,True,CHO,ester
4054,(E)-3-methoxypent-2-ene,CC/C(=C\C)/OC,363.34,6,"[1, 6, 8]",3,True,CHO,ester
4055,(E)-1-ethoxybut-1-ene,CC/C=C/OCC,363.46,6,"[1, 6, 8]",3,True,CHO,ester
4056,(Z)-1-ethoxybut-1-ene,CC/C=C\OCC,363.46,6,"[1, 6, 8]",3,True,CHO,ester
4057,1-[(E)-prop-1-enoxy]propane,CCCO/C=C/C,363.46,6,"[1, 6, 8]",3,True,CHO,ester
4058,"2,5-dimethyloxolane",CC1CCC(O1)C,364.15,6,"[1, 6, 8]",3,True,CHO,ester
4059,2-methoxypentane,CCCC(C)OC,364.65,6,"[1, 6, 8]",3,True,CHO,ester
4060,2-methyl-3-propyloxirane,CCCC1C(O1)C,365.9,6,"[1, 6, 8]",3,True,CHO,ester
4061,"N,N-dimethylbutan-2-amine",CCC(C)N(C)C,366.4,6,"[1, 6, 7]",3,True,CHN,amine
4062,N-prop-2-ynylprop-2-yn-1-amine,C#CCNCC#C,367.29,6,"[1, 6, 7]",3,True,CHN,alkyne
4063,1-methyl-4H-pyridine,CN1C=CCC=C1,367.59,6,"[1, 6, 7]",3,True,CHN,alkene
4064,1-prop-1-enoxyprop-1-ene,CC=COC=CC,367.62,6,"[1, 6, 8]",3,True,CHO,ester
4065,(E)-1-[(E)-prop-1-enoxy]prop-1-ene,C/C=C/O/C=C/C,367.62,6,"[1, 6, 8]",3,True,CHO,ester
4066,(Z)-1-[(E)-prop-1-enoxy]prop-1-ene,C/C=C/O/C=C\C,367.62,6,"[1, 6, 8]",3,True,CHO,ester
4067,"N,3-dimethylbut-3-en-2-amine",CC(C(=C)C)NC,367.65,6,"[1, 6, 7]",3,True,CHN,alkene
4068,"2-ethoxybuta-1,3-diene",CCOC(=C)C=C,367.65,6,"[1, 6, 8]",3,True,CHO,ester
4069,"2-ethenoxy-N,N-dimethylethanamine",CN(C)CCOC=C,368.42,6,"[1, 6, 7, 8]",4,True,CHON,ester
4070,"1-methyl-3,6-dihydro-2H-pyridine",CN1CCC=CC1,368.43,6,"[1, 6, 7]",3,True,CHN,alkene
4071,cyclopropylidenecyclopropane,C1CC1=C2CC2,368.82,6,"[1, 6]",2,True,CH,alkene
4072,bicyclo[2.2.0]hex-1(4)-ene,C1CC2=C1CC2,368.82,6,"[1, 6]",2,True,CH,alkene
4073,"1,3-dimethylpyrrolidin-2-one",CC1CCN(C1=O)C,369.65,6,"[1, 6, 7, 8]",4,True,CHON,amide
4074,N-prop-2-enylpropan-2-amine,CC(C)NCC=C,369.65,6,"[1, 6, 7]",3,True,CHN,alkene
4075,N-ethylbutan-2-amine,CCC(C)NCC,370.15,6,"[1, 6, 7]",3,True,CHN,amine
4076,"3-ethyl-2,2-dimethyloxirane",CCC1C(O1)(C)C,370.65,6,"[1, 6, 8]",3,True,CHO,ester
4077,"N',N'-bis(2-aminoethyl)ethane-1,2-diamine",C(CN(CCN)CCN)N,370.65,6,"[1, 6, 7]",3,True,CHN,amine
4078,2-methyl-2-propyloxirane,CCCC1(CO1)C,370.81,6,"[1, 6, 8]",3,True,CHO,ester
4079,1-prop-1-enoxypropane,CCCOC=CC,371.15,6,"[1, 6, 8]",3,True,CHO,ester
4080,"1,3-dimethyl-2-methylideneimidazole",CN1C=CN(C1=C)C,371.49,6,"[1, 6, 7]",3,True,CHN,alkene
4081,"N,2-dimethylbutan-2-amine",CCC(C)(C)NC,372.15,6,"[1, 6, 7]",3,True,CHN,amine
4082,"3,3-dimethylbutanal",CC(C)(C)CC=O,372.15,6,"[1, 6, 8]",3,True,CHO,aldehyde
4083,"1,3-dimethylpyrazole-4-carbaldehyde",CC1=NN(C=C1C=O)C,372.15,6,"[1, 6, 7, 8]",4,True,CHON,aromatic
4084,"2-methoxy-3-methylbuta-1,3-diene",CC(=C)C(=C)OC,372.15,6,"[1, 6, 8]",3,True,CHO,ester
4085,"2,2,4-trimethyl-1,3-dioxolane",CC1COC(O1)(C)C,372.65,6,"[1, 6, 8]",3,True,CHO,ester
4086,3-methoxycyclopentene,COC1CCC=C1,373.74,6,"[1, 6, 8]",3,True,CHO,ester
4087,4-methoxycyclopentene,COC1CC=CC1,373.74,6,"[1, 6, 8]",3,True,CHO,ester
4088,"4-methyl-3,4-dihydro-2H-pyran",CC1CCOC=C1,374.4,6,"[1, 6, 8]",3,True,CHO,ester
4089,"2-N,4-N,6-N-trimethyl-1,3,5-triazine-2,4,6-triamine",CNC1=NC(=NC(=N1)NC)NC,375.65,6,"[1, 6, 7]",3,True,CHN,aromatic
4090,"2,4,5-trimethyl-1,3-dioxolane",CC1C(OC(O1)C)C,376.15,6,"[1, 6, 8]",3,True,CHO,ester
4091,"1,2-dimethyl-3,6-dihydropyridazine",CN1CC=CCN1C,376.6,6,"[1, 6, 7]",3,True,CHN,alkene
4092,2-methylpentan-1-amine,CCCC(C)CN,376.65,6,"[1, 6, 7]",3,True,CHN,amine
4093,"2,5-dimethyl-2,5-dihydro-1H-pyrrole",CC1C=CC(N1)C,376.65,6,"[1, 6, 7]",3,True,CHN,alkene
4094,"1,3-dimethyl-1,3-diazinane",CN1CCCN(C1)C,377.44,6,"[1, 6, 7]",3,True,CHN,amine
4095,3-(1-methoxyethoxy)prop-1-ene,CC(OC)OCC=C,377.96,6,"[1, 6, 8]",3,True,CHO,ester
4096,4-methyloxane,CC1CCOCC1,378.15,6,"[1, 6, 8]",3,True,CHO,ester
4097,"2,2-dimethyl-4-methylidene-1,3-dioxolane",CC1(OCC(=C)O1)C,378.15,6,"[1, 6, 8]",3,True,CHO,ester
4098,"2,3-dimethylbutan-1-amine",CC(C)C(C)CN,378.15,6,"[1, 6, 7]",3,True,CHN,amine
4099,"1,1-diethoxyethene",CCOC(=C)OCC,378.28,6,"[1, 6, 8]",3,True,CHO,ester
4100,"2,2-dimethoxybutane",CCC(C)(OC)OC,378.49,6,"[1, 6, 8]",3,True,CHO,ester
4101,2-ethylperoxy-2-methylpropane,CCOOC(C)(C)C,378.49,6,"[1, 6, 8]",3,True,CHO,ester
4102,"3,3-dimethyl-2-propan-2-yloxaziridine",CC(C)N1C(O1)(C)C,378.54,6,"[1, 6, 7, 8]",4,True,CHON,ester
4103,methoxycyclopentane,COC1CCCC1,378.59,6,"[1, 6, 8]",3,True,CHO,ester
4104,3-methyl-2-methylidenebutanal,CC(C)C(=C)C=O,378.65,6,"[1, 6, 8]",3,True,CHO,alkene
4105,"4,5-dimethyl-2,3-dihydrofuran",CC1=C(OCC1)C,379.15,6,"[1, 6, 8]",3,True,CHO,ester
4106,3-methylpentan-2-amine,CCC(C)C(C)N,379.15,6,"[1, 6, 7]",3,True,CHN,amine
4107,"2,2-dimethylpyrrolidine",CC1(CCCN1)C,379.15,6,"[1, 6, 7]",3,True,CHN,amine
4108,"2,5-dimethylpyrrolidine",CC1CCC(N1)C,379.65,6,"[1, 6, 7]",3,True,CHN,amine
4109,"7-oxabicyclo[4.1.0]hepta-2,4-diene",C1=CC2C(O2)C=C1,379.9,6,"[1, 6, 8]",3,True,CHO,ester
4110,"2,2-diethyloxirane",CCC1(CO1)CC,380.15,6,"[1, 6, 8]",3,True,CHO,ester
4111,"1-ethyl-3-(1,3-oxazol-2-yl)urea",CCNC(=O)NC1=NC=CO1,380.15,6,"[1, 6, 7, 8]",4,True,CHON,aromatic
4112,4-methylpent-1-yn-3-one,CC(C)C(=O)C#C,380.43,6,"[1, 6, 8]",3,True,CHO,alkyne
4113,2-ethylbut-2-enoic acid,CCC(=CC)C(=O)O,380.65,6,"[1, 6, 8]",3,True,CHO,alkene
4114,7-oxabicyclo[2.2.1]hept-2-ene,C1CC2C=CC1O2,380.74,6,"[1, 6, 8]",3,True,CHO,ester
4115,2-propan-2-ylperoxypropane,CC(C)OOC(C)C,380.84,6,"[1, 6, 8]",3,True,CHO,ester
4116,hex-1-yn-3-one,CCCC(=O)C#C,380.87,6,"[1, 6, 8]",3,True,CHO,alkyne
4117,N-methyl-N-pyridin-2-ylnitrous amide,CN(C1=CC=CC=N1)N=O,381.15,6,"[1, 6, 7, 8]",4,True,CHON,aromatic
4118,4-methyl-4H-pyran,CC1C=COC=C1,381.7,6,"[1, 6, 8]",3,True,CHO,ester
4119,"1,4-dimethoxybutane",COCCCCOC,381.72,6,"[1, 6, 8]",3,True,CHO,ester
4120,1-propylperoxypropane,CCCOOCCC,381.72,6,"[1, 6, 8]",3,True,CHO,ester
4121,1-(2-methoxyethoxy)propane,CCCOCCOC,381.72,6,"[1, 6, 8]",3,True,CHO,ester
4122,2-methylpent-4-enal,CC(CC=C)C=O,381.78,6,"[1, 6, 8]",3,True,CHO,alkene
4123,prop-2-ynyl prop-2-enoate,C=CC(=O)OCC#C,381.9,6,"[1, 6, 8]",3,True,CHO,ester
4124,3-methyloxane,CC1CCCOC1,382.15,6,"[1, 6, 8]",3,True,CHO,ester
4125,4-methylideneoxane,C=C1CCOCC1,382.15,6,"[1, 6, 8]",3,True,CHO,ester
4126,2-butyloxirane,CCCCC1CO1,382.65,6,"[1, 6, 8]",3,True,CHO,ester
4127,propan-2-yl prop-2-enoate,CC(C)OC(=O)C=C,383.15,6,"[1, 6, 8]",3,True,CHO,ester
4128,(E)-4-methylpent-2-enal,CC(C)/C=C/C=O,383.15,6,"[1, 6, 8]",3,True,CHO,alkene
4129,2-methyloxane,CC1CCCCO1,383.38,6,"[1, 6, 8]",3,True,CHO,ester
4130,1-methoxycyclopentene,COC1=CCCC1,383.39,6,"[1, 6, 8]",3,True,CHO,ester
4131,"N,2,2-trimethylpropan-1-amine",CC(C)(C)CNC,383.82,6,"[1, 6, 7]",3,True,CHN,amine
4132,"1,5-diazabicyclo[3.2.1]octane",C1CN2CCN(C1)C2,384.58,6,"[1, 6, 7]",3,True,CHN,amine
4133,ethenyl 2-methylprop-2-enoate,CC(=C)C(=O)OC=C,384.65,6,"[1, 6, 8]",3,True,CHO,ester
4134,but-3-en-2-yl acetate,CC(C=C)OC(=O)C,385.00481,6,"[1, 6, 8]",3,True,CHO,ester
4135,(E)-hex-4-en-1-yn-3-one,C/C=C/C(=O)C#C,385.03,6,"[1, 6, 8]",3,True,CHO,alkene
4136,"2,4,4-trimethyl-5H-1,3-oxazole",CC1=NC(CO1)(C)C,385.15,6,"[1, 6, 7, 8]",4,True,CHON,ester
4137,2-(2-methylpropyl)oxirane,CC(C)CC1CO1,385.15,6,"[1, 6, 8]",3,True,CHO,ester
4138,2-methylbutan-2-yl formate,CCC(C)(C)OC=O,385.50004,6,"[1, 6, 8]",3,True,CHO,ester
4139,"1,2,4-trimethyl-1,2,4-triazinane",CN1CCN(N(C1)C)C,385.61,6,"[1, 6, 7]",3,True,CHN,amine
4140,"1,1-dimethoxy-2-methylprop-1-ene",CC(=C(OC)OC)C,385.64,6,"[1, 6, 8]",3,True,CHO,ester
4141,"3,3-dimethylbutan-1-amine",CC(C)(C)CCN,386.0,6,"[1, 6, 7]",3,True,CHN,amine
4142,prop-1-en-2-yl propanoate,CCC(=O)OC(=C)C,386.15,6,"[1, 6, 8]",3,True,CHO,ester
4143,"N,3-dimethylbutan-2-amine",CC(C)C(C)NC,386.17,6,"[1, 6, 7]",3,True,CHN,amine
4144,N-methylpentan-2-amine,CCCC(C)NC,386.61,6,"[1, 6, 7]",3,True,CHN,amine
4145,methyl 2-methylbutanoate,CCC(C)C(=O)OC,386.65,6,"[1, 6, 8]",3,True,CHO,ester
4146,"2,2-dimethylbutan-1-amine",CCC(C)(C)CN,386.65,6,"[1, 6, 7]",3,True,CHN,amine
4147,4-methylpent-1-en-3-one,CC(C)C(=O)C=C,386.99,6,"[1, 6, 8]",3,True,CHO,alkene
4148,hex-1-en-3-one,CCCC(=O)C=C,387.43,6,"[1, 6, 8]",3,True,CHO,alkene
4149,hex-5-en-3-one,CCC(=O)CC=C,387.43,6,"[1, 6, 8]",3,True,CHO,alkene
4150,6-hydroxyhexanoic acid,C(CCC(=O)O)CCO,387.65,6,"[1, 6, 8]",3,True,CHO,alcohol
4151,"5-ethyl-2,3-dihydrofuran",CCC1=CCCO1,387.92,6,"[1, 6, 8]",3,True,CHO,ester
4152,"2,3-dimethylbutanal",CC(C)C(C)C=O,389.15,6,"[1, 6, 8]",3,True,CHO,aldehyde
4153,"2,4-dimethylpyrrolidine",CC1CC(NC1)C,389.15,6,"[1, 6, 7]",3,True,CHN,amine
4154,hex-5-ynenitrile,C#CCCCC#N,389.15,6,"[1, 6, 7]",3,True,CHN,alkyne
4155,3-ethyloxolane,CCC1CCOC1,389.15,6,"[1, 6, 8]",3,True,CHO,ester
4156,(E)-3-methylpent-2-enal,CC/C(=C/C=O)/C,389.58,6,"[1, 6, 8]",3,True,CHO,alkene
4157,(E)-2-ethylbut-2-enal,CC/C(=C\C)/C=O,389.58,6,"[1, 6, 8]",3,True,CHO,alkene
4158,oxepine,C1=CC=COC=C1,389.8,6,"[1, 6, 8]",3,True,CHO,ester
4159,2-methylidenepentanal,CCCC(=C)C=O,390.15,6,"[1, 6, 8]",3,True,CHO,alkene
4160,ethenyl but-3-enoate,C=CCC(=O)OC=C,390.15,6,"[1, 6, 8]",3,True,CHO,ester
4161,2-methoxypyridin-3-amine,COC1=C(C=CC=N1)N,390.15,6,"[1, 6, 7, 8]",4,True,CHON,ester
4162,"2,5-dimethyl-1,4-dioxane",CC1COC(CO1)C,390.15,6,"[1, 6, 8]",3,True,CHO,ester
4163,N-methylpentan-1-amine,CCCCCNC,390.15,6,"[1, 6, 7]",3,True,CHN,amine
4164,(2Z)-2-ethylideneoxolane,C/C=C\1/CCCO1,390.42,6,"[1, 6, 8]",3,True,CHO,ester
4165,(2E)-2-ethylideneoxolane,C/C=C/1\CCCO1,390.42,6,"[1, 6, 8]",3,True,CHO,ester
4166,"4-methylpentane-2,3-dione",CC(C)C(=O)C(=O)C,390.65,6,"[1, 6, 8]",3,True,CHO,ketone
4167,"1,4-dimethoxybut-2-yne",COCC#CCOC,390.72,6,"[1, 6, 8]",3,True,CHO,ester
4168,1-acetylpyrrolidin-2-one,CC(=O)N1CCCC1=O,391.15,6,"[1, 6, 7, 8]",4,True,CHON,amide
4169,hex-5-enal,C=CCCCC=O,391.4,6,"[1, 6, 8]",3,True,CHO,alkene
4170,"(3E)-hexa-3,5-dien-2-one",CC(=O)/C=C/C=C,391.59,6,"[1, 6, 8]",3,True,CHO,alkene
4171,"2-ethyl-4-methyl-1,3-dioxolane",CCC1OCC(O1)C,391.65,6,"[1, 6, 8]",3,True,CHO,ester
4172,"1,3-dimethoxybutane",CC(CCOC)OC,391.65,6,"[1, 6, 8]",3,True,CHO,ester
4173,"2,3-dimethylbut-3-en-2-ol",CC(=C)C(C)(C)O,391.65,6,"[1, 6, 8]",3,True,CHO,alkene
4174,"2-propan-2-yl-1,3-dioxolane",CC(C)C1OCCO1,392.15,6,"[1, 6, 8]",3,True,CHO,ester
4175,but-1-en-2-yl acetate,CCC(=C)OC(=O)C,392.15,6,"[1, 6, 8]",3,True,CHO,ester
4176,"1,1-dimethoxy-N,N-dimethylethanamine",CC(N(C)C)(OC)OC,392.15,6,"[1, 6, 7, 8]",4,True,CHON,ester
4177,"6-methyl-3,4-dihydro-2H-pyran",CC1=CCCCO1,392.19,6,"[1, 6, 8]",3,True,CHO,ester
4178,3-prop-2-ynoxyprop-1-yne,C#CCOCC#C,392.65,6,"[1, 6, 8]",3,True,CHO,ester
4179,1-(2-methylcyclopropyl)ethanone,CC1CC1C(=O)C,392.82,6,"[1, 6, 8]",3,True,CHO,ketone
4180,"N,N-bis(prop-2-ynyl)nitrous amide",C#CCN(CC#C)N=O,392.96,6,"[1, 6, 7, 8]",4,True,CHON,alkyne
4181,2-(propoxymethyl)oxirane,CCCOCC1CO1,392.99,6,"[1, 6, 8]",3,True,CHO,ester
4182,[(E)-but-2-en-2-yl] acetate,C/C=C(\C)/OC(=O)C,393.15,6,"[1, 6, 8]",3,True,CHO,ester
4183,2-but-3-enyloxirane,C=CCCC1CO1,393.15,6,"[1, 6, 8]",3,True,CHO,ester
4184,1-nitroso-1-pentylurea,CCCCCN(C(=O)N)N=O,393.15,6,"[1, 6, 7, 8]",4,True,CHON,amide
4185,4-[(E)-dimethylaminodiazenyl]-1H-imidazole-5-carboxamide,CN(C)/N=N/C1=C(NC=N1)C(=O)N,393.55,6,"[1, 6, 7, 8]",4,True,CHON,aromatic
4186,"2,2-dimethoxy-N,N-dimethylethanamine",CN(C)CC(OC)OC,393.72,6,"[1, 6, 7, 8]",4,True,CHON,ester
4187,"(2E,4Z)-hexa-2,4-dienal",C/C=C\C=C\C=O,393.86,6,"[1, 6, 8]",3,True,CHO,alkene
4188,4-methylpentanal,CC(C)CCC=O,394.15,6,"[1, 6, 8]",3,True,CHO,aldehyde
4189,"2-ethoxy-N,N-dimethylethanamine",CCOCCN(C)C,394.15,6,"[1, 6, 7, 8]",4,True,CHON,ester