,Name,SMILES,Tb,C Atom,Atom,Count Unique Atom,Pass Screen,Atom2,Func. Group
8027,3-ethyl-2-hydroxyheptanoic acid,CCCCC(CC)C(C(=O)O)O,642.33,9,"[1, 6, 8]",3,True,CHO,alcohol
8028,3-amino-3-cyclohexylpropanoic acid,C1CCC(CC1)C(CC(=O)O)N,642.67,9,"[1, 6, 7, 8]",4,True,CHON,carboxylic_acid
8029,9-hydroxynonanoic acid,C(CCCCO)CCCC(=O)O,643.21,9,"[1, 6, 8]",3,True,CHO,alcohol
8030,4-methylhexan-3-yl acetate,CCC(C)C(CC)OC(=O)C,643.73,9,"[1, 6, 8]",3,True,CHO,ester
8031,2-(2-hydroxyethyliminomethyl)phenol,C1=CC=C(C(=C1)C=NCCO)O,644.87,9,"[1, 6, 7, 8]",4,True,CHON,aromatic
8032,"1,3-dipropylimidazolidine-2,4,5-trione",CCCN1C(=O)C(=O)N(C1=O)CCC,645.27,9,"[1, 6, 7, 8]",4,True,CHON,amide
8033,2-(N-hydroxy-C-methylcarbonimidoyl)-5-methylphenol,CC1=CC(=C(C=C1)C(=NO)C)O,649.73,9,"[1, 6, 7, 8]",4,True,CHON,aromatic
8034,"1,4,7,10-tetraoxacyclododec-2-ylmethanol",C1COCCOC(COCCO1)CO,650.67,9,"[1, 6, 8]",3,True,CHO,ester
8035,"N'-[3-(3-aminopropylamino)propyl]propane-1,3-diamine",C(CN)CNCCCNCCCN,650.92,9,"[1, 6, 7]",3,True,CHN,amine
8036,2-methyl-2-[(2-methylpropan-2-yl)oxycarbonylamino]propanoic acid,CC(C)(C)OC(=O)NC(C)(C)C(=O)O,652.96,9,"[1, 6, 7, 8]",4,True,CHON,carboxylic_acid
8037,4-[(2-methylpropan-2-yl)oxycarbonylamino]butanoic acid,CC(C)(C)OC(=O)NCCCC(=O)O,656.19,9,"[1, 6, 7, 8]",4,True,CHON,carboxylic_acid
8038,"N,N-bis(2-hydroxyethyl)pentanamide",CCCCC(=O)N(CCO)CCO,656.19,9,"[1, 6, 7, 8]",4,True,CHON,amide
8039,N-[2-(2-oxoimidazolidin-1-yl)ethyl]but-2-enamide,CC=CC(=O)NCCN1CCNC1=O,658.21,9,"[1, 6, 7, 8]",4,True,CHON,amide
8040,1-(tert-butyldiazenyl)cyclopentan-1-ol,CC(C)(C)N=NC1(CCCC1)O,659.19,9,"[1, 6, 7, 8]",4,True,CHON,alcohol
8041,"4-hydroxy-4-azatricyclo[5.2.1.02,6]dec-8-ene-3,5-dione",C1C2C=CC1C3C2C(=O)N(C3=O)O,660.49,9,"[1, 6, 7, 8]",4,True,CHON,alkene
8042,4-oxo-4-(2-prop-2-enoyloxyethoxy)butanoic acid,C=CC(=O)OCCOC(=O)CCC(=O)O,664.15,9,"[1, 6, 8]",3,True,CHO,carboxylic_acid
8043,"3,4-dihydroisoquinoline-6,7-diol",C1CN=CC2=CC(=C(C=C21)O)O,666.39,9,"[1, 6, 7, 8]",4,True,CHON,aromatic
8044,(Z)-4-oxo-4-(2-prop-2-enoyloxyethoxy)but-2-enoic acid,C=CC(=O)OCCOC(=O)/C=C\C(=O)O,668.31,9,"[1, 6, 8]",3,True,CHO,carboxylic_acid
8045,1-cyclohexyl-3-(2-hydroxyethyl)urea,C1CCC(CC1)NC(=O)NCCO,671.46,9,"[1, 6, 7, 8]",4,True,CHON,alcohol
8046,(Z)-N-(acetylcarbamoyl)-2-ethylbut-2-enamide,CC/C(=C/C)/C(=O)NC(=O)NC(=O)C,671.51,9,"[1, 6, 7, 8]",4,True,CHON,alkene
8047,"2,3-dihydroxy-4,4,5,5-tetramethylcyclopent-2-en-1-one",CC1(C(=C(C(=O)C1(C)C)O)O)C,677.91,9,"[1, 6, 8]",3,True,CHO,alkene
8048,"3-hydroxy-1-methyl-2,3-dihydroindole-5,6-dione",CN1CC(C2=CC(=O)C(=O)C=C21)O,680.75,9,"[1, 6, 7, 8]",4,True,CHON,ketone
8049,"2-(2-methylpropoxy)ethyl N,N-bis(hydroxymethyl)carbamate",CC(C)COCCOC(=O)N(CO)CO,682.52,9,"[1, 6, 7, 8]",4,True,CHON,ester
8050,6-imidazol-1-yl-6-oxohexanoic acid,C1=CN(C=N1)C(=O)CCCCC(=O)O,685.04,9,"[1, 6, 7, 8]",4,True,CHON,carboxylic_acid
8051,"5,5-diethyl-1-methyl-1,3-diazinane-2,4,6-trione",CCC1(C(=O)NC(=O)N(C1=O)C)CC,685.49,9,"[1, 6, 7, 8]",4,True,CHON,amide
8052,"2-(hydroxymethyl)-4,5,6,7-tetrahydroisoindole-1,3-dione",C1CCC2=C(C1)C(=O)N(C2=O)CO,686.26,9,"[1, 6, 7, 8]",4,True,CHON,amide
8053,"2,2,4-trimethylhexanedioic acid",CC(CC(=O)O)CC(C)(C)C(=O)O,692.87,9,"[1, 6, 8]",3,True,CHO,alcohol
8054,"2,4,4-trimethylhexanedioic acid",CC(CC(C)(C)CC(=O)O)C(=O)O,692.87,9,"[1, 6, 8]",3,True,CHO,alcohol
8055,"2,2,3-trimethylhexanedioic acid",CC(CCC(=O)O)C(C)(C)C(=O)O,692.87,9,"[1, 6, 8]",3,True,CHO,alcohol
8056,2-hexylpropanedioic acid,CCCCCCC(C(=O)O)C(=O)O,696.1,9,"[1, 6, 8]",3,True,CHO,alcohol
8057,"3-(carboxymethyl)-2,2-dimethylcyclobutane-1-carboxylic acid",CC1(C(CC1C(=O)O)CC(=O)O)C,698.45,9,"[1, 6, 8]",3,True,CHO,alcohol
8058,"diethyl 2,2-bis(hydroxymethyl)propanedioate",CCOC(=O)C(CO)(CO)C(=O)OCC,703.09,9,"[1, 6, 8]",3,True,CHO,ester
8059,2-(azocan-2-ylmethyl)guanidine,C1CCCNC(CC1)CN=C(N)N,703.78,9,"[1, 6, 7]",3,True,CHN,amine
8060,"bicyclo[2.2.1]hept-5-ene-2,3-dicarboxylic acid",C1C2C=CC1C(C2C(=O)O)C(=O)O,704.11,9,"[1, 6, 8]",3,True,CHO,alkene
8061,"3-methylcyclohex-4-ene-1,2-dicarboxylic acid",CC1C=CCC(C1C(=O)O)C(=O)O,705.91,9,"[1, 6, 8]",3,True,CHO,alkene
8062,"5-butyl-1,3-bis(hydroxymethyl)-1,3,5-triazinan-2-one",CCCCN1CN(C(=O)N(C1)CO)CO,706.43,9,"[1, 6, 7, 8]",4,True,CHON,amide
8063,"4-methylcyclohexane-1,2-dicarboxylic acid",CC1CCC(C(C1)C(=O)O)C(=O)O,706.75,9,"[1, 6, 8]",3,True,CHO,alcohol
8064,"1,3-bis(hydroxymethyl)-4-methoxy-5,5-dimethyl-1,3-diazinan-2-one",CC1(CN(C(=O)N(C1OC)CO)CO)C,711.58,9,"[1, 6, 7, 8]",4,True,CHON,ester
8065,"3,7-dimethyl-1-prop-2-enylpurine-2,6-dione",CN1C=NC2=C1C(=O)N(C(=O)N2C)CC=C,307.15,10,"[1, 6, 7, 8]",4,True,CHON,alkene
8066,"1,2,3,4,5-pentamethylcyclopenta-1,3-diene",CC1C(=C(C(=C1C)C)C)C,331.15,10,"[1, 6]",2,True,CH,alkene
8067,"(2E,4E)-deca-2,4-dienal",CCCCC/C=C/C=C/C=O,337.65,10,"[1, 6, 8]",3,True,CHO,alkene
8068,2-(3-methoxyphenyl)-N-methylethanamine,CNCCC1=CC(=CC=C1)OC,344.15,10,"[1, 6, 7, 8]",4,True,CHON,ester
8069,2-[acetyl(2-acetyloxyethyl)amino]ethyl acetate,CC(=O)N(CCOC(=O)C)CCOC(=O)C,345.55,10,"[1, 6, 7, 8]",4,True,CHON,ester
8070,propan-2-yl cyclohexanecarboxylate,CC(C)OC(=O)C1CCCCC1,345.65,10,"[1, 6, 8]",3,True,CHO,ester
8071,"(3E)-3,7-dimethylocta-1,3,6-triene",CC(=CC/C=C(\C)/C=C)C,346.15,10,"[1, 6]",2,True,CH,alkene
8072,2-methylnonan-4-one,CCCCCC(=O)CC(C)C,349.15,10,"[1, 6, 8]",3,True,CHO,ketone
8073,1-methylazecan-2-one,CN1CCCCCCCCC1=O,354.65,10,"[1, 6, 7, 8]",4,True,CHON,amide
8074,6-oxo-3-prop-1-en-2-ylheptanal,CC(=C)C(CCC(=O)C)CC=O,356.15,10,"[1, 6, 8]",3,True,CHO,aldehyde
8075,"1,2,3,4-tetramethylcyclohexane",CC1CCC(C(C1C)C)C,357.15,10,"[1, 6]",2,True,CH,alkane
8076,"2,2-dimethyl-3H-1-benzofuran",CC1(CC2=CC=CC=C2O1)C,357.4,10,"[1, 6, 8]",3,True,CHO,ester
8077,2-(dibutylamino)acetonitrile,CCCCN(CCCC)CC#N,358.15,10,"[1, 6, 7]",3,True,CHN,amine
8078,2-(2-methylpropyl)phenol,CC(C)CC1=CC=CC=C1O,359.15,10,"[1, 6, 8]",3,True,CHO,aromatic
8079,"2-[(E)-2-(3,3-dimethyloxiran-2-yl)ethenyl]-2,3-dimethyloxirane",CC1C(O1)(C)/C=C/C2C(O2)(C)C,359.4,10,"[1, 6, 8]",3,True,CHO,ester
8080,(E)-2-methyl-3-phenylprop-2-en-1-ol,C/C(=C\C1=CC=CC=C1)/CO,359.65,10,"[1, 6, 8]",3,True,CHO,alkene
8081,"2-(4-methylphenyl)-1,3-dioxolane",CC1=CC=C(C=C1)C2OCCO2,361.15,10,"[1, 6, 8]",3,True,CHO,ester
8082,2-butoxyethyl 2-methylprop-2-enoate,CCCCOCCOC(=O)C(=C)C,363.15,10,"[1, 6, 8]",3,True,CHO,ester
8083,2-butylcyclohexan-1-one,CCCCC1CCCCC1=O,363.65,10,"[1, 6, 8]",3,True,CHO,ketone
8084,"4-ethenyl-N,N-dimethylaniline",CN(C)C1=CC=C(C=C1)C=C,363.65,10,"[1, 6, 7]",3,True,CHN,alkene
8085,"4,4-diethoxy-N,N-dimethylbutan-1-amine",CCOC(CCCN(C)C)OCC,365.65,10,"[1, 6, 7, 8]",4,True,CHON,ester
8086,"5,5-diethyl-1,3-dimethyl-1,3-diazinane-2,4,6-trione",CCC1(C(=O)N(C(=O)N(C1=O)C)C)CC,366.15,10,"[1, 6, 7, 8]",4,True,CHON,amide
8087,ethenyl octanoate,CCCCCCCC(=O)OC=C,367.15,10,"[1, 6, 8]",3,True,CHO,ester
8088,"(3E)-3,7-dimethylocta-3,6-dienal",CC(=CC/C=C(\C)/CC=O)C,369.15,10,"[1, 6, 8]",3,True,CHO,alkene
8089,"2,7-dimethyloctan-4-ol",CC(C)CCC(CC(C)C)O,369.15,10,"[1, 6, 8]",3,True,CHO,alcohol
8090,3-propan-2-ylbenzaldehyde,CC(C)C1=CC=CC(=C1)C=O,369.15,10,"[1, 6, 8]",3,True,CHO,aromatic
8091,4-phenylbutanenitrile,C1=CC=C(C=C1)CCCC#N,371.15,10,"[1, 6, 7]",3,True,CHN,aromatic
8092,"4,7,7-trimethylbicyclo[4.1.0]heptan-3-ol",CC1CC2C(C2(C)C)CC1O,371.15,10,"[1, 6, 8]",3,True,CHO,alcohol
8093,1-(1-butoxyethoxy)butane,CCCCOC(C)OCCCC,371.85,10,"[1, 6, 8]",3,True,CHO,ester
8094,"(3E,5E)-3,7-dimethylocta-1,3,5-triene",CC(C)/C=C/C=C(\C)/C=C,373.15,10,"[1, 6]",2,True,CH,alkene
8095,5-methyl-2-prop-1-en-2-ylcyclohexan-1-one,CC1CCC(C(=O)C1)C(=C)C,373.65,10,"[1, 6, 8]",3,True,CHO,alkene
8096,"diethyl 2-methylpyrazole-3,4-dicarboxylate",CCOC(=O)C1=C(N(N=C1)C)C(=O)OCC,375.65,10,"[1, 6, 7, 8]",4,True,CHON,ester
8097,1-pyridin-4-ylpentan-1-one,CCCCC(=O)C1=CC=NC=C1,376.65,10,"[1, 6, 7, 8]",4,True,CHON,aromatic
8098,"5-ethyl-3-phenyl-1,2,4-oxadiazole",CCC1=NC(=NO1)C2=CC=CC=C2,377.15,10,"[1, 6, 7, 8]",4,True,CHON,aromatic
8099,bis(prop-2-enyl) butanedioate,C=CCOC(=O)CCC(=O)OCC=C,378.15,10,"[1, 6, 8]",3,True,CHO,ester
8100,3-cyclohexylpropyl formate,C1CCC(CC1)CCCOC=O,380.65,10,"[1, 6, 8]",3,True,CHO,ester
8101,1-(2-hydroxyphenyl)-2-methylpropan-1-one,CC(C)C(=O)C1=CC=CC=C1O,383.15,10,"[1, 6, 8]",3,True,CHO,ketone
8102,(Z)-3-(2-methoxyphenyl)prop-2-enoic acid,COC1=CC=CC=C1/C=C\C(=O)O,384.15,10,"[1, 6, 8]",3,True,CHO,carboxylic_acid
8103,4-cyclohexylmorpholine,C1CCC(CC1)N2CCOCC2,384.65,10,"[1, 6, 7, 8]",4,True,CHON,ester
8104,"(NZ)-N-[1-(7-bicyclo[4.2.0]octa-1,3,5-trienyl)ethylidene]hydroxylamine",C/C(=N/O)/C1CC2=CC=CC=C12,385.15,10,"[1, 6, 7, 8]",4,True,CHON,aromatic
8105,"(4E,6E)-2,6-dimethylocta-2,4,6-triene",C/C=C(\C)/C=C/C=C(C)C,385.65,10,"[1, 6]",2,True,CH,alkene
8106,N-ethenyl-N-phenylacetamide,CC(=O)N(C=C)C1=CC=CC=C1,385.65,10,"[1, 6, 7, 8]",4,True,CHON,amide
8107,1-methyl-4-prop-1-en-2-yl-7-oxabicyclo[4.1.0]heptane,CC(=C)C1CCC2(C(C1)O2)C,386.65,10,"[1, 6, 8]",3,True,CHO,ester
8108,"3-(2,3,4,5-tetrahydropyridin-6-yl)pyridine",C1CCN=C(C1)C2=CN=CC=C2,388.15,10,"[1, 6, 7]",3,True,CHN,aromatic
8109,1-(diaminomethylidene)-2-(2-phenylethyl)guanidine,C1=CC=C(C=C1)CCN=C(N)N=C(N)N,388.15,10,"[1, 6, 7]",3,True,CHN,aromatic
8110,"1,3-benzodioxol-5-yl(oxiran-2-yl)methanol",C1C(O1)C(C2=CC3=C(C=C2)OCO3)O,388.15,10,"[1, 6, 8]",3,True,CHO,ester
8111,2-(3-azabicyclo[3.2.2]nonan-3-yl)ethanamine,C1CC2CCC1CN(C2)CCN,390.15,10,"[1, 6, 7]",3,True,CHN,amine
8112,2-methyl-4-propylphenol,CCCC1=CC(=C(C=C1)O)C,390.15,10,"[1, 6, 8]",3,True,CHO,aromatic
8113,2-(oxiran-2-ylmethyl)-3-[3-(oxiran-2-yl)propyl]oxirane,C1C(O1)CCCC2C(O2)CC3CO3,390.15,10,"[1, 6, 8]",3,True,CHO,ester
8114,2-(2-ethoxyphenoxy)acetonitrile,CCOC1=CC=CC=C1OCC#N,390.65,10,"[1, 6, 7, 8]",4,True,CHON,ester
8115,"4-methyl-2-phenyl-1,3-dioxolane",CC1COC(O1)C2=CC=CC=C2,391.15,10,"[1, 6, 8]",3,True,CHO,ester
8116,4-(cyclohexen-1-yl)morpholine,C1CCC(=CC1)N2CCOCC2,392.65,10,"[1, 6, 7, 8]",4,True,CHON,ester
8117,"N,N-diethylpiperidine-3-carboxamide",CCN(CC)C(=O)C1CCCNC1,392.65,10,"[1, 6, 7, 8]",4,True,CHON,amide
8118,"2,2-dimethyl-3H-1-benzofuran-7-ol",CC1(CC2=C(O1)C(=CC=C2)O)C,393.65,10,"[1, 6, 8]",3,True,CHO,ester
8119,"6-ethyl-2,3-dihydro-1,4-benzodioxin-5-ol",CCC1=C(C2=C(C=C1)OCCO2)O,393.65,10,"[1, 6, 8]",3,True,CHO,ester
8120,"(3,5-dimethylphenyl) N-methylcarbamate",CC1=CC(=CC(=C1)OC(=O)NC)C,394.15,10,"[1, 6, 7, 8]",4,True,CHON,ester
8121,4-[butyl(nitroso)amino]butyl acetate,CCCCN(CCCCOC(=O)C)N=O,395.15,10,"[1, 6, 7, 8]",4,True,CHON,ester
8122,quinoline-4-carbaldehyde,C1=CC=C2C(=C1)C(=CC=N2)C=O,395.65,10,"[1, 6, 7, 8]",4,True,CHON,aromatic
8123,1-(dimethoxymethyl)-4-methoxybenzene,COC1=CC=C(C=C1)C(OC)OC,396.15,10,"[1, 6, 8]",3,True,CHO,ester
8124,"1-(2-methyl-1,4,5,6-tetrahydrocyclopenta[b]pyrrol-3-yl)ethanone",CC1=C(C2=C(N1)CCC2)C(=O)C,396.15,10,"[1, 6, 7, 8]",4,True,CHON,aromatic
8125,"N-(3,7-dimethyloct-6-enylidene)hydroxylamine",CC(CCC=C(C)C)CC=NO,397.65,10,"[1, 6, 7, 8]",4,True,CHON,alkene
8126,"(E)-2,2,5,5-tetramethylhex-3-ene",CC(C)(C)/C=C/C(C)(C)C,398.25,10,"[1, 6]",2,True,CH,alkene
8127,"1-(1,3-benzodioxol-5-yl)propan-1-one",CCC(=O)C1=CC2=C(C=C1)OCO2,401.15,10,"[1, 6, 8]",3,True,CHO,ester
8128,4-propoxybenzaldehyde,CCCOC1=CC=C(C=C1)C=O,402.15,10,"[1, 6, 8]",3,True,CHO,ester
8129,"3,7-dimethyloctanal",CC(C)CCCC(C)CC=O,403.15,10,"[1, 6, 8]",3,True,CHO,aldehyde
8130,2-prop-2-enoxybenzaldehyde,C=CCOC1=CC=CC=C1C=O,403.15,10,"[1, 6, 8]",3,True,CHO,ester
8131,"2-(2,2,3-trimethylcyclopent-3-en-1-yl)ethanol",CC1=CCC(C1(C)C)CCO,405.15,10,"[1, 6, 8]",3,True,CHO,alkene
8132,(E)-3-(4-methoxyphenyl)prop-2-enenitrile,COC1=CC=C(C=C1)/C=C/C#N,406.65,10,"[1, 6, 7, 8]",4,True,CHON,ester
8133,"deca-1,9-diyne",C#CCCCCCCC#C,408.64,10,"[1, 6]",2,True,CH,alkyne
8134,"1-(2,6-dimethoxyphenyl)ethanone",CC(=O)C1=C(C=CC=C1OC)OC,408.65,10,"[1, 6, 8]",3,True,CHO,ester
8135,methyl 3-cyclohexylpropanoate,COC(=O)CCC1CCCCC1,408.9,10,"[1, 6, 8]",3,True,CHO,ester
8136,"(2,4,6-trimethylphenyl)methanol",CC1=CC(=C(C(=C1)C)CO)C,413.15,10,"[1, 6, 8]",3,True,CHO,aromatic
8137,3-(2-bicyclo[2.2.1]hept-5-enyl)prop-2-enoic acid,C1C2CC(C1C=C2)C=CC(=O)O,413.15,10,"[1, 6, 8]",3,True,CHO,alkene
8138,"hexacyclo[4.4.0.02,5.03,9.04,8.07,10]decane",C12C3C4C1C5C2C6C3C4C56,416.0,10,"[1, 6]",2,True,CH,alkane
8139,"hexacyclo[4.4.0.02,4.03,9.05,7.08,10]decane",C12C3C4C3C5C1C5C6C2C46,416.0,10,"[1, 6]",2,True,CH,alkane
8140,"4-methyl-1,2,3,4-tetrahydroquinoline",CC1CCNC2=CC=CC=C12,416.65,10,"[1, 6, 7]",3,True,CHN,aromatic
8141,7-methylnon-1-yne,CCC(C)CCCCC#C,418.08,10,"[1, 6]",2,True,CH,alkyne
8142,"2-methyl-6-methylideneocta-1,7-diene",CC(=C)CCCC(=C)C=C,418.2,10,"[1, 6]",2,True,CH,alkene
8143,"(3,5-dimethylphenyl) N-methyl-N-nitrosocarbamate",CC1=CC(=CC(=C1)OC(=O)N(C)N=O)C,419.15,10,"[1, 6, 7, 8]",4,True,CHON,ester
8144,5-benzyl-1H-imidazole,C1=CC=C(C=C1)CC2=CN=CN2,419.65,10,"[1, 6, 7]",3,True,CHN,aromatic
8145,"2-hexyl-4-methyl-1,3-dioxolane",CCCCCCC1OCC(O1)C,419.65,10,"[1, 6, 8]",3,True,CHO,ester
8146,"1-methoxy-2,3-dihydro-1H-inden-2-ol",COC1C(CC2=CC=CC=C12)O,420.15,10,"[1, 6, 8]",3,True,CHO,ester
8147,"2-ethynyl-1,1,3,3-tetramethylcyclobutane",CC1(CC(C1C#C)(C)C)C,420.67,10,"[1, 6]",2,True,CH,alkyne
8148,"4-methoxy-2,5-dimethylbenzaldehyde",CC1=CC(=C(C=C1OC)C)C=O,421.15,10,"[1, 6, 8]",3,True,CHO,ester
8149,"2,6-dimethylocta-1,7-diene",CC(CCCC(=C)C)C=C,421.2,10,"[1, 6]",2,True,CH,alkene
8150,"9-methylidenepentacyclo[4.3.0.02,4.03,8.05,7]nonane",C=C1C2C3C4C3C1C5C4C52,421.63,10,"[1, 6]",2,True,CH,alkene
8151,(E)-dec-3-en-1-yne,CCCCCC/C=C/C#C,422.68,10,"[1, 6]",2,True,CH,alkene
8152,(E)-dec-5-en-1-yne,CCCC/C=C/CCC#C,422.68,10,"[1, 6]",2,True,CH,alkene
8153,(Z)-dec-3-en-1-yne,CCCCCC/C=C\C#C,422.68,10,"[1, 6]",2,True,CH,alkene
8154,4-prop-2-enoxybenzaldehyde,C=CCOC1=CC=C(C=C1)C=O,423.15,10,"[1, 6, 8]",3,True,CHO,ester
8155,3-ethyl-2-methylhept-1-ene,CCCCC(CC)C(=C)C,424.52,10,"[1, 6]",2,True,CH,alkene
8156,8-methylnon-1-ene,CC(C)CCCCCC=C,424.64,10,"[1, 6]",2,True,CH,alkene
8157,"3,5,5-trimethylhept-3-ene",CCC(=CC(C)(C)CC)C,424.65,10,"[1, 6]",2,True,CH,alkene
8158,(E)-3-(4-methylphenyl)prop-2-en-1-ol,CC1=CC=C(C=C1)/C=C/CO,425.15,10,"[1, 6, 8]",3,True,CHO,alkene
8159,"2,2-dimethyl-5-methylidenebicyclo[2.2.1]heptane",CC1(CC2CC1CC2=C)C,425.15,10,"[1, 6]",2,True,CH,alkene
8160,"2,5,6-trimethylhepta-1,3,6-triene",CC(C=CC(=C)C)C(=C)C,425.24,10,"[1, 6]",2,True,CH,alkene
8161,"(3E)-3,7-dimethylocta-1,3,7-triene",CC(=C)CC/C=C(\C)/C=C,425.68,10,"[1, 6]",2,True,CH,alkene
8162,"pentacyclo[4.4.0.02,5.03,8.04,7]dec-9-ene",C1=CC2C3C4C1C5C2C3C45,425.9,10,"[1, 6]",2,True,CH,alkene
8163,"pentacyclo[4.4.0.02,4.03,8.05,7]dec-9-ene",C1=CC2C3C4C1C5C2C5C43,425.9,10,"[1, 6]",2,True,CH,alkene
8164,"(5E)-deca-1,5,9-triene",C=CCC/C=C/CCC=C,425.92,10,"[1, 6]",2,True,CH,alkene
8165,"1,3,5,5-tetramethylcyclohexa-1,3-diene",CC1=CC(=CC(C1)(C)C)C,426.15,10,"[1, 6]",2,True,CH,alkene
8166,"1,3,3-trimethylbicyclo[2.2.1]heptane",CC1(CC2(CCC1C2)C)C,426.15,10,"[1, 6]",2,True,CH,alkane
8167,"2-hexyl-1,3-dioxane",CCCCCCC1OCCCO1,426.15,10,"[1, 6, 8]",3,True,CHO,ester
8168,ethyl 2-hydroxy-5-methylbenzoate,CCOC(=O)C1=C(C=CC(=C1)C)O,426.65,10,"[1, 6, 8]",3,True,CHO,ester
8169,"pentacyclo[4.4.0.02,4.03,8.05,7]decane",C1CC2C3C4C1C5C2C5C43,426.74,10,"[1, 6]",2,True,CH,alkane
8170,"pentacyclo[5.3.0.02,10.03,5.06,8]decane",C1C2C1C3C4C3C5C2C5C4,426.74,10,"[1, 6]",2,True,CH,alkane
8171,2-methylpropyl hexanoate,CCCCCC(=O)OCC(C)C,427.05,10,"[1, 6, 8]",3,True,CHO,ester
8172,dec-2-ene,CCCCCCCC=CC,427.15,10,"[1, 6]",2,True,CH,alkene
8173,"2-ethenyl-1,1,3,3-tetramethylcyclobutane",CC1(CC(C1C=C)(C)C)C,427.23,10,"[1, 6]",2,True,CH,alkene
8174,"deca-1,4-diyne",CCCCCC#CCC#C,427.52,10,"[1, 6]",2,True,CH,alkyne
8175,"deca-1,5-diyne",CCCCC#CCCC#C,427.52,10,"[1, 6]",2,True,CH,alkyne
8176,"1,2-bis(ethenyl)-1,2-dimethylcyclobutane",CC1(CCC1(C)C=C)C=C,428.58,10,"[1, 6]",2,True,CH,alkene
8177,"5,7-dimethylocta-1,6-diene",CC(CCC=C)C=C(C)C,428.68,10,"[1, 6]",2,True,CH,alkene
8178,"1,1-diethoxyhexane",CCCCCC(OCC)OCC,429.65,10,"[1, 6, 8]",3,True,CHO,ester
8179,"1-(2,5-dimethoxyphenyl)ethanone",CC(=O)C1=C(C=CC(=C1)OC)OC,429.65,10,"[1, 6, 8]",3,True,CHO,ester
8180,"1,3,8-triazatricyclo[7.4.0.02,7]trideca-2(7),3,5,8,10,12-hexaen-4-amine",C1=CC2=NC3=C(N2C=C1)N=C(C=C3)N,429.65,10,"[1, 6, 7]",3,True,CHN,aromatic
8181,"2,2,5,5-tetramethylhex-3-yne",CC(C)(C)C#CC(C)(C)C,430.94,10,"[1, 6]",2,True,CH,alkyne
8182,"3,4-diethylhex-3-ene",CCC(=C(CC)CC)CC,431.4,10,"[1, 6]",2,True,CH,alkene
8183,"(Z)-2,3,4,5-tetramethylhex-3-ene",CC(C)/C(=C(/C)\C(C)C)/C,431.44,10,"[1, 6]",2,True,CH,alkene
8184,"(E)-2,3,4,5-tetramethylhex-3-ene",CC(C)/C(=C(\C)/C(C)C)/C,431.44,10,"[1, 6]",2,True,CH,alkene
8185,"2,3-dimethyloct-2-ene",CCCCCC(=C(C)C)C,431.75,10,"[1, 6]",2,True,CH,alkene
8186,"(E)-3,4-diethylhex-2-ene",CCC(CC)/C(=C/C)/CC,432.0,10,"[1, 6]",2,True,CH,alkene
8187,"4-ethenyl-1,4-dimethylcyclohexene",CC1=CCC(CC1)(C)C=C,432.15,10,"[1, 6]",2,True,CH,alkene
8188,3-ethyl-2-methylhept-2-ene,CCCCC(=C(C)C)CC,432.32,10,"[1, 6]",2,True,CH,alkene
8189,(E)-dec-3-ene,CCCCCC/C=C/CC,432.56,10,"[1, 6]",2,True,CH,alkene
8190,(Z)-dec-4-ene,CCCCC/C=C\CCC,432.56,10,"[1, 6]",2,True,CH,alkene
8191,(E)-dec-4-ene,CCCCC/C=C/CCC,432.56,10,"[1, 6]",2,True,CH,alkene
8192,"6,6-dimethyl-4-methylidenebicyclo[3.1.1]hept-2-ene",CC1(C2CC1C(=C)C=C2)C,432.65,10,"[1, 6]",2,True,CH,alkene
8193,"2-(2,5-dimethoxyphenyl)ethanamine",COC1=CC(=C(C=C1)OC)CCN,433.15,10,"[1, 6, 7, 8]",4,True,CHON,ester
8194,1-(4-methoxyphenyl)prop-2-en-1-one,COC1=CC=C(C=C1)C(=O)C=C,433.15,10,"[1, 6, 8]",3,True,CHO,ester
8195,"1,1,3,4-tetramethylcyclohexane",CC1CCC(CC1C)(C)C,433.15,10,"[1, 6]",2,True,CH,alkane
8196,"(3Z)-3,7-dimethylocta-1,3,6-triene",CC(=CC/C=C(/C)\C=C)C,433.16,10,"[1, 6]",2,True,CH,alkene
8197,"(3E,7E)-deca-1,3,7-triene",CC/C=C/CC/C=C/C=C,433.4,10,"[1, 6]",2,True,CH,alkene
8198,4-propylhept-3-ene,CCCC(=CCC)CCC,433.65,10,"[1, 6]",2,True,CH,alkene
8199,2-methylnon-1-en-3-yne,CCCCCC#CC(=C)C,433.96,10,"[1, 6]",2,True,CH,alkene
8200,"2,2,5,5-tetramethylhexan-3-one",CC(C)(C)CC(=O)C(C)(C)C,434.0273,10,"[1, 6, 8]",3,True,CHO,ketone
8201,dec-1-en-4-yne,CCCCCC#CCC=C,434.08,10,"[1, 6]",2,True,CH,alkene
8202,"2,2-dimethyloct-3-yne",CCCCC#CC(C)(C)C,434.17,10,"[1, 6]",2,True,CH,alkyne
8203,3-(4-methoxyphenyl)propan-1-ol,COC1=CC=C(C=C1)CCCO,435.15,10,"[1, 6, 8]",3,True,CHO,ester
8204,"deca-1,3,5,7,9-pentayne",C#CC#CC#CC#CC#C,435.64,10,"[1, 6]",2,True,CH,alkyne
8205,"tetracyclo[5.3.0.02,6.03,10]deca-4,8-diene",C1=CC2C3C=CC4C1C2C43,435.8,10,"[1, 6]",2,True,CH,alkene
8206,"ethyl 2,4-dimethyl-6-oxopyran-3-carboxylate",CCOC(=O)C1=C(OC(=O)C=C1C)C,436.15,10,"[1, 6, 8]",3,True,CHO,ester
8207,"1,2,3,5-tetramethylcyclohexane",CC1CC(C(C(C1)C)C)C,436.15,10,"[1, 6]",2,True,CH,alkane
8208,"2,6-dimethyloct-2-ene",CCC(C)CCC=C(C)C,436.15,10,"[1, 6]",2,True,CH,alkene
8209,"4,7,7-trimethylbicyclo[4.1.0]hept-2-ene",CC1CC2C(C2(C)C)C=C1,436.21,10,"[1, 6]",2,True,CH,alkene
8210,"(6E)-2,6-dimethylocta-2,6-diene",C/C=C(\C)/CCC=C(C)C,436.48,10,"[1, 6]",2,True,CH,alkene
8211,"2,6-dimethylocta-2,5-diene",CCC(=CCC=C(C)C)C,436.48,10,"[1, 6]",2,True,CH,alkene
8212,"tetracyclo[5.2.1.02,6.03,5]dec-8-ene",C1C2C=CC1C3C2C4C3C4,436.64,10,"[1, 6]",2,True,CH,alkene
8213,"tetracyclo[5.3.0.02,6.03,10]dec-4-ene",C1CC2C3C=CC4C1C2C43,436.64,10,"[1, 6]",2,True,CH,alkene
8214,"(2E,8E)-deca-2,8-diene",C/C=C/CCCC/C=C/C,436.72,10,"[1, 6]",2,True,CH,alkene
8215,"(3E,6E)-deca-3,6-diene",CCC/C=C/C/C=C/CC,436.72,10,"[1, 6]",2,True,CH,alkene
8216,8-methylnon-4-yne,CCCC#CCCC(C)C,436.96,10,"[1, 6]",2,True,CH,alkyne
8217,4-methylidene-1-propan-2-ylbicyclo[3.1.0]hexane,CC(C)C12CCC(=C)C1C2,437.15,10,"[1, 6]",2,True,CH,alkene
8218,"1,1,4-trimethylcycloheptane",CC1CCCC(CC1)(C)C,437.15,10,"[1, 6]",2,True,CH,alkane
8219,dec-4-yne,CCCCCC#CCCC,437.4,10,"[1, 6]",2,True,CH,alkyne
8220,"tetracyclo[5.3.0.02,6.03,10]decane",C1CC2C3CCC4C1C2C43,437.48,10,"[1, 6]",2,True,CH,alkane
8221,"tetracyclo[5.2.1.02,6.03,5]decane",C1CC2CC1C3C2C4C3C4,437.48,10,"[1, 6]",2,True,CH,alkane
8222,"tetracyclo[7.1.0.02,4.05,7]decane",C1C2CC2C3CC3C4C1C4,437.48,10,"[1, 6]",2,True,CH,alkane