,Name,SMILES,Tb,C Atom,Atom,Count Unique Atom,Pass Screen,Atom2,Func. Group
10016,"7-methoxy-3,7-dimethyloctan-2-ol",CC(CCCC(C)(C)OC)C(C)O,561.77,11,"[1, 6, 8]",3,True,CHO,ester
10017,"tricyclo[4.3.1.12,5]undec-3-en-10-ol",C1CC2C3CC(C=C3)C(C1)C2O,562.04,11,"[1, 6, 8]",3,True,CHO,alkene
10018,4-cyclohexyl-3-methylbutan-2-ol,CC(CC1CCCCC1)C(C)O,562.13,11,"[1, 6, 8]",3,True,CHO,alcohol
10019,6-ethoxyquinoline,CCOC1=CC2=C(C=C1)N=CC=C2,562.15,11,"[1, 6, 7, 8]",4,True,CHON,ester
10020,"7-methoxy-3,7-dimethyloctan-1-ol",CC(CCCC(C)(C)OC)CCO,562.21,11,"[1, 6, 8]",3,True,CHO,ester
10021,1-cyclohexylpentan-1-ol,CCCCC(C1CCCCC1)O,562.57,11,"[1, 6, 8]",3,True,CHO,alcohol
10022,"tricyclo[4.3.1.12,5]undecan-10-ol",C1CC2C3CCC(C3)C(C1)C2O,562.88,11,"[1, 6, 8]",3,True,CHO,alcohol
10023,ethyl 2-acetylheptanoate,CCCCCC(C(=O)C)C(=O)OCC,562.93,11,"[1, 6, 8]",3,True,CHO,ester
10024,3-(2-bicyclo[2.2.1]heptanyl)but-3-enenitrile,C=C(CC#N)C1CC2CCC1C2,563.0,11,"[1, 6, 7]",3,True,CHN,alkene
10025,methyl 9-oxodecanoate,CC(=O)CCCCCCCC(=O)OC,563.37,11,"[1, 6, 8]",3,True,CHO,ester
10026,methyl 3-oxodecanoate,CCCCCCCC(=O)CC(=O)OC,563.37,11,"[1, 6, 8]",3,True,CHO,ester
10027,"(2E)-2-(3,3-dimethyl-2-bicyclo[2.2.1]heptanylidene)ethanol",CC\1(C2CCC(C2)/C1=C\CO)C,563.42,11,"[1, 6, 8]",3,True,CHO,alkene
10028,1-adamantylmethanol,C1C2CC3CC1CC(C2)(C3)CO,563.52,11,"[1, 6, 8]",3,True,CHO,alcohol
10029,diethyl 2-tert-butylpropanedioate,CCOC(=O)C(C(=O)OCC)C(C)(C)C,564.05,11,"[1, 6, 8]",3,True,CHO,ester
10030,diethyl 2-methyl-2-propan-2-ylpropanedioate,CCOC(=O)C(C)(C(C)C)C(=O)OCC,564.05,11,"[1, 6, 8]",3,True,CHO,ester
10031,"dimethyl tetracyclo[3.2.0.02,7.04,6]heptane-1,5-dicarboxylate",COC(=O)C12C3C1C4C2(C4C3)C(=O)OC,564.47,11,"[1, 6, 8]",3,True,CHO,ester
10032,"(2,2-dimethyl-3-propanoyloxypropyl) propanoate",CCC(=O)OCC(C)(C)COC(=O)CC,564.49,11,"[1, 6, 8]",3,True,CHO,ester
10033,"diethyl 3,3-dimethylpentanedioate",CCOC(=O)CC(C)(C)CC(=O)OCC,564.49,11,"[1, 6, 8]",3,True,CHO,ester
10034,3-ethyl-2-methyl-1H-indole,CCC1=C(NC2=CC=CC=C21)C,565.15,11,"[1, 6, 7]",3,True,CHN,aromatic
10035,"methyl 2-(3-acetyl-2,2-dimethylcyclobutyl)acetate",CC(=O)C1CC(C1(C)C)CC(=O)OC,565.28,11,"[1, 6, 8]",3,True,CHO,ester
10036,2-hexyl-5-methylfuran-3-one,CCCCCCC1C(=O)C=C(O1)C,565.47,11,"[1, 6, 8]",3,True,CHO,ester
10037,ethyl 3-formylbicyclo[2.2.1]hept-5-ene-2-carboxylate,CCOC(=O)C1C2CC(C1C=O)C=C2,565.73,11,"[1, 6, 8]",3,True,CHO,ester
10038,3-(dibutylamino)propanenitrile,CCCCN(CCCC)CCC#N,565.8,11,"[1, 6, 7]",3,True,CHN,amine
10039,dipentylcyanamide,CCCCCN(CCCCC)C#N,565.8,11,"[1, 6, 7]",3,True,CHN,amine
10040,diethyl 2-butan-2-ylpropanedioate,CCC(C)C(C(=O)OCC)C(=O)OCC,566.84,11,"[1, 6, 8]",3,True,CHO,ester
10041,diethyl 2-(2-methylpropyl)propanedioate,CCOC(=O)C(CC(C)C)C(=O)OCC,566.84,11,"[1, 6, 8]",3,True,CHO,ester
10042,(1-butoxy-1-oxopropan-2-yl) butanoate,CCCCOC(=O)C(C)OC(=O)CCC,567.28,11,"[1, 6, 8]",3,True,CHO,ester
10043,methyl 5-acetyloxyoctanoate,CCCC(CCCC(=O)OC)OC(=O)C,567.28,11,"[1, 6, 8]",3,True,CHO,ester
10044,2-butanoyloxypropyl butanoate,CCCC(=O)OCC(C)OC(=O)CCC,567.28,11,"[1, 6, 8]",3,True,CHO,ester
10045,5-propanoyloxypentyl propanoate,CCC(=O)OCCCCCOC(=O)CC,567.72,11,"[1, 6, 8]",3,True,CHO,ester
10046,"1,3-bis(diethylamino)propan-2-ol",CCN(CC)CC(CN(CC)CC)O,567.9,11,"[1, 6, 7, 8]",4,True,CHON,alcohol
10047,1-O-butyl 4-O-prop-2-enyl (Z)-but-2-enedioate,CCCCOC(=O)/C=C\C(=O)OCC=C,568.56,11,"[1, 6, 8]",3,True,CHO,ester
10048,"ethyl 3,4-dimethoxybenzoate",CCOC(=O)C1=CC(=C(C=C1)OC)OC,568.65,11,"[1, 6, 8]",3,True,CHO,ester
10049,"methyl 2,2,6,6-tetramethylpiperidine-4-carboxylate",CC1(CC(CC(N1)(C)C)C(=O)OC)C,568.74,11,"[1, 6, 7, 8]",4,True,CHON,ester
10050,"6-methoxy-2,7-dimethyloct-6-en-1-ol",CC(CCCC(=C(C)C)OC)CO,569.36,11,"[1, 6, 8]",3,True,CHO,ester
10051,"methyl 3-(2-methoxy-2-oxoethyl)-2,2-dimethylcyclobutane-1-carboxylate",CC1(C(CC1C(=O)OC)CC(=O)OC)C,569.63,11,"[1, 6, 8]",3,True,CHO,ester
10052,N-(1-adamantyl)formamide,C1C2CC3CC1CC(C2)(C3)NC=O,570.17,11,"[1, 6, 7, 8]",4,True,CHON,amide
10053,3-(2-bicyclo[2.2.1]heptanyl)but-2-enenitrile,CC(=CC#N)C1CC2CCC1C2,570.48,11,"[1, 6, 7]",3,True,CHN,alkene
10054,"7-methoxy-3,7-dimethyloctanenitrile",CC(CCCC(C)(C)OC)CC#N,572.11,11,"[1, 6, 7, 8]",4,True,CHON,ester
10055,3-ethylchromen-2-one,CCC1=CC2=CC=CC=C2OC1=O,572.15,11,"[1, 6, 8]",3,True,CHO,aromatic
10056,1-methyl-azacycloundecan-2-one,CN1CCCCCCCCCC1=O,572.84,11,"[1, 6, 7, 8]",4,True,CHON,amide
10057,2-[2-(2-methoxyethoxy)ethoxy]ethyl 2-methylprop-2-enoate,CC(=C)C(=O)OCCOCCOCCOC,573.32,11,"[1, 6, 8]",3,True,CHO,ester
10058,"8a-methyl-1,2,3,4,7,8-hexahydronaphthalen-4a-ol",CC12CCCCC1(C=CCC2)O,573.66,11,"[1, 6, 8]",3,True,CHO,alkene
10059,"8a-methyl-1,2,3,4,5,6,7,8-octahydronaphthalen-4a-ol",CC12CCCCC1(CCCC2)O,574.5,11,"[1, 6, 8]",3,True,CHO,alcohol
10060,3-(2-ethylhexoxy)propanenitrile,CCCCC(CC)COCCC#N,575.34,11,"[1, 6, 7, 8]",4,True,CHON,ester
10061,3-(6-methylheptoxy)propanenitrile,CC(C)CCCCCOCCC#N,575.34,11,"[1, 6, 7, 8]",4,True,CHON,ester
10062,3-octoxypropanenitrile,CCCCCCCCOCCC#N,575.78,11,"[1, 6, 7, 8]",4,True,CHON,ester
10063,propyl 4-(diethylamino)-4-oxobutanoate,CCCOC(=O)CCC(=O)N(CC)CC,575.81,11,"[1, 6, 7, 8]",4,True,CHON,ester
10064,(5-acetyloxy-2-bicyclo[2.2.1]heptanyl) acetate,CC(=O)OC1CC2CC1CC2OC(=O)C,576.13,11,"[1, 6, 8]",3,True,CHO,ester
10065,(7-acetyloxy-2-bicyclo[2.2.1]heptanyl) acetate,CC(=O)OC1CC2CCC1C2OC(=O)C,576.13,11,"[1, 6, 8]",3,True,CHO,ester
10066,methyl (E)-3-(2-methoxyphenyl)prop-2-enoate,COC1=CC=CC=C1/C=C/C(=O)OC,577.15,11,"[1, 6, 8]",3,True,CHO,ester
10067,3-(2-bicyclo[2.2.1]heptanylidene)butanenitrile,CC(=C1CC2CCC1C2)CC#N,577.63,11,"[1, 6, 7]",3,True,CHN,alkene
10068,"1-N,1-N,3-N,3-N-tetramethylcyclopenta[c]pyrrole-1,3-diamine",CN(C)C1=C2C=CC=C2C(=N1)N(C)C,577.78,11,"[1, 6, 7]",3,True,CHN,alkene
10069,phenyl(1H-pyrrol-2-yl)methanone,C1=CC=C(C=C1)C(=O)C2=CC=CN2,578.0,11,"[1, 6, 7, 8]",4,True,CHON,aromatic
10070,"undeca-2,4,6,8,10-pentaynenitrile",C#CC#CC#CC#CC#CC#N,579.48,11,"[1, 6, 7]",3,True,CHN,alkyne
10071,ethyl 3-[(3-ethoxy-3-oxopropyl)-methylamino]propanoate,CCOC(=O)CCN(C)CCC(=O)OCC,580.16,11,"[1, 6, 7, 8]",4,True,CHON,ester
10072,"1,3-bis[(2-methylpropan-2-yl)oxy]propan-2-ol",CC(C)(C)OCC(COC(C)(C)C)O,581.4,11,"[1, 6, 8]",3,True,CHO,ester
10073,"2-(2,6,6-trimethylcyclohexen-1-yl)acetonitrile",CC1=C(C(CCC1)(C)C)CC#N,582.27,11,"[1, 6, 7]",3,True,CHN,alkene
10074,"3,3,6,6,9,9-hexamethyl-1,2,4,5-tetraoxonane",CC1(CCC(OOC(OO1)(C)C)(C)C)C,582.82,11,"[1, 6, 8]",3,True,CHO,ester
10075,prop-2-enyl 4-tert-butylperoxy-4-oxobutanoate,CC(C)(C)OOC(=O)CCC(=O)OCC=C,583.59,11,"[1, 6, 8]",3,True,CHO,ester
10076,1-butoxy-3-[(2-methylpropan-2-yl)oxy]propan-2-ol,CCCCOCC(COC(C)(C)C)O,584.63,11,"[1, 6, 8]",3,True,CHO,ester
10077,5-methyl-5-(4-methylpent-3-enyl)oxolan-2-ol,CC(=CCCC1(CCC(O1)O)C)C,585.3,11,"[1, 6, 8]",3,True,CHO,ester
10078,1-methoxy-2-[2-[2-(2-methoxyethoxy)ethoxymethoxy]ethoxy]ethane,COCCOCCOCOCCOCCOC,585.8,11,"[1, 6, 8]",3,True,CHO,ester
10079,"dimethyl 4-methylcyclohex-4-ene-1,2-dicarboxylate",CC1=CCC(C(C1)C(=O)OC)C(=O)OC,586.74,11,"[1, 6, 8]",3,True,CHO,ester
10080,prop-2-enyl (E)-4-tert-butylperoxy-4-oxobut-2-enoate,CC(C)(C)OOC(=O)/C=C/C(=O)OCC=C,587.75,11,"[1, 6, 8]",3,True,CHO,ester
10081,"1-ethoxy-N,N-dimethylcyclopenta[c]pyrrol-3-amine",CCOC1=C2C=CC=C2C(=N1)N(C)C,587.76,11,"[1, 6, 7, 8]",4,True,CHON,ester
10082,"methyl 2,4,4-trimethyl-6-oxocyclohexane-1-carboxylate",CC1CC(CC(=O)C1C(=O)OC)(C)C,587.77,11,"[1, 6, 8]",3,True,CHO,ester
10083,2-(2-heptan-3-yloxyethoxy)ethanol,CCCCC(CC)OCCOCCO,587.86,11,"[1, 6, 8]",3,True,CHO,ester
10084,methyl 2-(3-oxo-2-propylcyclopentyl)acetate,CCCC1C(CCC1=O)CC(=O)OC,587.93,11,"[1, 6, 8]",3,True,CHO,ester
10085,3-[N-(2-hydroxyethyl)anilino]propanenitrile,C1=CC=C(C=C1)N(CCC#N)CCO,588.15,11,"[1, 6, 7, 8]",4,True,CHON,aromatic
10086,2-(2-heptoxyethoxy)ethanol,CCCCCCCOCCOCCO,588.3,11,"[1, 6, 8]",3,True,CHO,ester
10087,"pentacyclo[5.4.0.02,6.03,10.05,9]undecane-8,11-dione",C1C2C3C4C1C5C2C(=O)C3C4C5=O,589.53,11,"[1, 6, 8]",3,True,CHO,ketone
10088,methyl 2-oxo-1-oxaspiro[4.5]decane-4-carboxylate,COC(=O)C1CC(=O)OC12CCCCC2,589.98,11,"[1, 6, 8]",3,True,CHO,ester
10089,"5,5-dimethyl-3-(propan-2-ylamino)cyclohex-2-en-1-one",CC(C)NC1=CC(=O)CC(C1)(C)C,592.76,11,"[1, 6, 7, 8]",4,True,CHON,ketone
10090,methyl 1-butyl-2-oxocyclopentane-1-carboxylate,CCCCC1(CCCC1=O)C(=O)OC,592.84,11,"[1, 6, 8]",3,True,CHO,ester
10091,2-phenylpyridin-3-ol,C1=CC=C(C=C1)C2=C(C=CC=N2)O,593.15,11,"[1, 6, 7, 8]",4,True,CHON,aromatic
10092,"5,5-dimethyl-3-(propylamino)cyclohex-2-en-1-one",CCCNC1=CC(=O)CC(C1)(C)C,593.2,11,"[1, 6, 7, 8]",4,True,CHON,ketone
10093,"dimethyl bicyclo[2.2.1]hepta-2,5-diene-2,3-dicarboxylate",COC(=O)C1=C(C2CC1C=C2)C(=O)OC,593.75,11,"[1, 6, 8]",3,True,CHO,ester
10094,N-[(E)-(4-methoxy-4-methylpentan-2-ylidene)amino]-2-methylpropan-2-amine,C/C(=N\NC(C)(C)C)/CC(C)(C)OC,593.97,11,"[1, 6, 7, 8]",4,True,CHON,ester
10095,diethyl 2-(1-ethoxyethylidene)propanedioate,CCOC(=C(C(=O)OCC)C(=O)OCC)C,594.06,11,"[1, 6, 8]",3,True,CHO,ester
10096,"5,7,7-trimethyl-3-azabicyclo[3.3.1]nonan-1-amine",CC1(CC2(CC(C1)(CNC2)N)C)C,594.7,11,"[1, 6, 7]",3,True,CHN,amine
10097,ethyl 1-(2-methoxy-2-oxoethyl)piperidine-4-carboxylate,CCOC(=O)C1CCN(CC1)CC(=O)OC,595.44,11,"[1, 6, 7, 8]",4,True,CHON,ester
10098,"3,3,6,6-tetramethylbicyclo[2.2.1]heptane-2,5-dione",CC1(C2CC(C1=O)C(C2=O)(C)C)C,595.81,11,"[1, 6, 8]",3,True,CHO,ketone
10099,"3-cyclooctyl-1,1-dimethylurea",CN(C)C(=O)NC1CCCCCCC1,595.85,11,"[1, 6, 7, 8]",4,True,CHON,amide
10100,"undecane-1,11-diamine",C(CCCCCN)CCCCCN,596.34,11,"[1, 6, 7]",3,True,CHN,amine
10101,"ethyl 2,6-dimethyl-4-oxocyclohex-2-ene-1-carboxylate",CCOC(=O)C1C(CC(=O)C=C1C)C,596.34,11,"[1, 6, 8]",3,True,CHO,ester
10102,2-ethylnonanoic acid,CCCCCCCC(CC)C(=O)O,596.35,11,"[1, 6, 8]",3,True,CHO,alcohol
10103,2-methyldecanoic acid,CCCCCCCCC(C)C(=O)O,596.35,11,"[1, 6, 8]",3,True,CHO,alcohol
10104,6-methyldecanoic acid,CCCCC(C)CCCCC(=O)O,596.35,11,"[1, 6, 8]",3,True,CHO,alcohol
10105,3-methyldecanoic acid,CCCCCCCC(C)CC(=O)O,596.35,11,"[1, 6, 8]",3,True,CHO,alcohol
10106,ethyl 3-(4-oxocyclohexyl)propanoate,CCOC(=O)CCC1CCC(=O)CC1,596.87,11,"[1, 6, 8]",3,True,CHO,ester
10107,adamantane-1-carboxamide,C1C2CC3CC1CC(C2)(C3)C(=O)N,597.74,11,"[1, 6, 7, 8]",4,True,CHON,amide
10108,dimethyl 2-piperidin-1-ylbutanedioate,COC(=O)CC(C(=O)OC)N1CCCCC1,599.67,11,"[1, 6, 7, 8]",4,True,CHON,ester
10109,heptan-2-yl 3-hydroxybutanoate,CCCCCC(C)OC(=O)CC(C)O,600.8,11,"[1, 6, 8]",3,True,CHO,ester
10110,octyl 2-hydroxypropanoate,CCCCCCCCOC(=O)C(C)O,601.24,11,"[1, 6, 8]",3,True,CHO,ester
10111,2-hydroxypropyl octanoate,CCCCCCCC(=O)OCC(C)O,601.24,11,"[1, 6, 8]",3,True,CHO,ester
10112,methyl 10-hydroxydecanoate,COC(=O)CCCCCCCCCO,601.68,11,"[1, 6, 8]",3,True,CHO,ester
10113,3-(octylamino)propanenitrile,CCCCCCCCNCCC#N,603.53,11,"[1, 6, 7]",3,True,CHN,amine
10114,"4,8-dimethylbicyclo[3.3.1]nonane-2,6-dione",CC1CC(=O)C2CC1C(=O)CC2C,603.87,11,"[1, 6, 8]",3,True,CHO,ketone
10115,"1,8,8-trimethylbicyclo[3.2.1]octane-2,4-dione",CC1(C2CCC1(C(=O)CC2=O)C)C,604.75,11,"[1, 6, 8]",3,True,CHO,ketone
10116,"1,4-dioxacyclotridecane-5,13-dione",C1CCCC(=O)OCCOC(=O)CCC1,604.75,11,"[1, 6, 8]",3,True,CHO,ester
10117,ethyl 2-oxocyclooctane-1-carboxylate,CCOC(=O)C1CCCCCCC1=O,605.41,11,"[1, 6, 8]",3,True,CHO,ester
10118,1-O-butyl 4-O-(oxiran-2-ylmethyl) (Z)-but-2-enedioate,CCCCOC(=O)/C=C\C(=O)OCC1CO1,605.57,11,"[1, 6, 8]",3,True,CHO,ester
10119,piperidin-1-yl(piperidin-3-yl)methanone,C1CCN(CC1)C(=O)C2CCCNC2,605.64,11,"[1, 6, 7, 8]",4,True,CHON,amide
10120,undec-9-ynoic acid,CC#CCCCCCCCC(=O)O,605.79,11,"[1, 6, 8]",3,True,CHO,alkyne
10121,"3,3,7,7-tetramethylcycloheptane-1,2-dione",CC1(CCCC(C(=O)C1=O)(C)C)C,606.55,11,"[1, 6, 8]",3,True,CHO,ketone
10122,1-butoxy-1-tert-butylperoxypropan-2-ol,CCCCOC(C(C)O)OOC(C)(C)C,606.61,11,"[1, 6, 8]",3,True,CHO,ester
10123,ethyl 2-cyano-3-methyl-2-propan-2-ylbutanoate,CCOC(=O)C(C#N)(C(C)C)C(C)C,607.47,11,"[1, 6, 7, 8]",4,True,CHON,ester
10124,N-(5-methylhexan-2-yl)-3-oxobutanamide,CC(C)CCC(C)NC(=O)CC(=O)C,608.31,11,"[1, 6, 7, 8]",4,True,CHON,amide
10125,4-tert-butylcyclohexane-1-carboxylic acid,CC(C)(C)C1CCC(CC1)C(=O)O,608.44,11,"[1, 6, 8]",3,True,CHO,alcohol
10126,"tricyclo[6.2.1.02,7]undeca-4,9-diene-3,6-dione",C1C2C=CC1C3C2C(=O)C=CC3=O,609.33,11,"[1, 6, 8]",3,True,CHO,alkene
10127,"3,3-dimethyl-2-methylidenebicyclo[2.2.1]heptane-1-carboxylic acid",CC1(C2CCC(C2)(C1=C)C(=O)O)C,609.51,11,"[1, 6, 8]",3,True,CHO,alkene
10128,1-(oxan-4-yl)cyclohexan-1-ol,C1CCC(CC1)(C2CCOCC2)O,609.75,11,"[1, 6, 8]",3,True,CHO,ester
10129,"5-(3,4,5,6-tetrahydro-2H-azepin-7-yl)pentan-1-amine",C1CCC(=NCC1)CCCCCN,610.14,11,"[1, 6, 7]",3,True,CHN,amine
10130,"dimethyl 3-oxatricyclo[5.1.0.02,4]oct-5-ene-6,7-dicarboxylate",COC(=O)C1=CC2C(O2)C3C1(C3)C(=O)OC,610.33,11,"[1, 6, 8]",3,True,CHO,ester
10131,2-ethylhexyl 2-cyanoacetate,CCCCC(CC)COC(=O)CC#N,611.14,11,"[1, 6, 7, 8]",4,True,CHON,ester
10132,octan-2-yl 2-cyanoacetate,CCCCCCC(C)OC(=O)CC#N,611.14,11,"[1, 6, 7, 8]",4,True,CHON,ester
10133,methyl 2-cyanononanoate,CCCCCCCC(C#N)C(=O)OC,611.14,11,"[1, 6, 7, 8]",4,True,CHON,ester
10134,octyl 2-cyanoacetate,CCCCCCCCOC(=O)CC#N,611.58,11,"[1, 6, 7, 8]",4,True,CHON,ester
10135,adamantane-2-carboxylic acid,C1C2CC3CC1CC(C2)C3C(=O)O,611.94,11,"[1, 6, 8]",3,True,CHO,alcohol
10136,"tricyclo[5.2.1.02,6]decane-3-carboxylic acid",C1CC2CC1C3C2C(CC3)C(=O)O,611.94,11,"[1, 6, 8]",3,True,CHO,alcohol
10137,2-[N-(2-hydroxyethyl)-4-methylanilino]ethanol,CC1=CC=C(C=C1)N(CCO)CCO,612.15,11,"[1, 6, 7, 8]",4,True,CHON,aromatic
10138,[4-(hydroxymethyl)cyclohexyl]methyl prop-2-enoate,C=CC(=O)OCC1CCC(CC1)CO,613.24,11,"[1, 6, 8]",3,True,CHO,ester
10139,5-(2-hydroxy-2-methylpropylidene)cyclohex-3-ene-1-carbaldehyde,CC(C)(C=C1CC(CC=C1)C=O)O,614.24,11,"[1, 6, 8]",3,True,CHO,alkene
10140,(2E)-2-(2-hydroxy-2-methylpropylidene)cyclohex-3-ene-1-carbaldehyde,CC(C)(/C=C/1\C=CCCC1C=O)O,614.24,11,"[1, 6, 8]",3,True,CHO,alkene
10141,2-(butylcarbamoyloxy)ethyl 2-methylprop-2-enoate,CCCCNC(=O)OCCOC(=O)C(=C)C,614.45,11,"[1, 6, 7, 8]",4,True,CHON,ester
10142,"diethyl oxane-4,4-dicarboxylate",CCOC(=O)C1(CCOCC1)C(=O)OCC,614.46,11,"[1, 6, 8]",3,True,CHO,ester
10143,"N-(2,2,6,6-tetramethylpiperidin-4-yl)acetamide",CC(=O)NC1CC(NC(C1)(C)C)(C)C,614.56,11,"[1, 6, 7, 8]",4,True,CHON,amide
10144,"spiro[bicyclo[2.2.1]hept-5-ene-7,1'-cyclopentane]-2,3-dione",C1CCC2(C1)C3C=CC2C(=O)C3=O,615.08,11,"[1, 6, 8]",3,True,CHO,alkene
10145,tert-butyl-(2-methoxy-4-methylpentan-2-yl)diazene,CC(C)CC(C)(N=NC(C)(C)C)OC,616.0,11,"[1, 6, 7, 8]",4,True,CHON,ester
10146,5-cyclohexylpentanoic acid,C1CCC(CC1)CCCCC(=O)O,616.34,11,"[1, 6, 8]",3,True,CHO,alcohol
10147,adamantane-1-carboxylic acid,C1C2CC3CC1CC(C2)(C3)C(=O)O,616.85,11,"[1, 6, 8]",3,True,CHO,alcohol
10148,"tricyclo[3.3.3.01,5]undecane-2,8-dione",C1CC23CCC(=O)C2(C1)C(=O)CC3,620.83,11,"[1, 6, 8]",3,True,CHO,ketone
10149,diethyl 2-acetylpentanedioate,CCOC(=O)CCC(C(=O)C)C(=O)OCC,621.15,11,"[1, 6, 8]",3,True,CHO,ester
10150,"4,8-dimethylbicyclo[3.3.1]nona-3,7-diene-2,6-dione",CC1=CC(=O)C2CC1C(=O)C=C2C,621.49,11,"[1, 6, 8]",3,True,CHO,alkene
10151,"4,6-dimethylbicyclo[3.3.1]nona-3,6-diene-2,8-dione",CC1=CC(=O)C2CC1C(=CC2=O)C,621.49,11,"[1, 6, 8]",3,True,CHO,alkene
10152,diethyl 4-oxoheptanedioate,CCOC(=O)CCC(=O)CCC(=O)OCC,621.59,11,"[1, 6, 8]",3,True,CHO,ester
10153,2-[formyl(2-prop-2-enoyloxyethyl)amino]ethyl prop-2-enoate,C=CC(=O)OCCN(CCOC(=O)C=C)C=O,622.18,11,"[1, 6, 7, 8]",4,True,CHON,ester
10154,[3-acetyloxy-2-(acetyloxymethyl)-2-methylpropyl] acetate,CC(=O)OCC(C)(COC(=O)C)COC(=O)C,622.71,11,"[1, 6, 8]",3,True,CHO,ester
10155,"triethyl ethane-1,1,1-tricarboxylate",CCOC(=O)C(C)(C(=O)OCC)C(=O)OCC,622.71,11,"[1, 6, 8]",3,True,CHO,ester
10156,2-(1-butylpiperidin-3-yl)acetic acid,CCCCN1CCCC(C1)CC(=O)O,624.51,11,"[1, 6, 7, 8]",4,True,CHON,carboxylic_acid
10157,"2-(2,2,6,6-tetramethylpiperidin-4-yl)oxyethanol",CC1(CC(CC(N1)(C)C)OCCO)C,625.12,11,"[1, 6, 7, 8]",4,True,CHON,ester
10158,"8a-methyl-3,4,7,8-tetrahydro-2H-naphthalene-1,6-dione",CC12CCC(=O)C=C1CCCC2=O,626.53,11,"[1, 6, 8]",3,True,CHO,alkene
10159,(2-cyano-2-ethylcyclohexyl) acetate,CCC1(CCCCC1OC(=O)C)C#N,626.7,11,"[1, 6, 7, 8]",4,True,CHON,ester
10160,"2,3,4,5,6,7,8,8a-octahydro-1H-naphthalene-4a-carboxylic acid",C1CCC2(CCCCC2C1)C(=O)O,627.59,11,"[1, 6, 8]",3,True,CHO,alcohol
10161,N-(3-aminopropyl)octanamide,CCCCCCCC(=O)NCCCN,627.85,11,"[1, 6, 7, 8]",4,True,CHON,amide
10162,tert-butyl N-(6-aminohexyl)carbamate,CC(C)(C)OC(=O)NCCCCCCN,628.97,11,"[1, 6, 7, 8]",4,True,CHON,ester
10163,"2-(2-hexyl-4,5-dihydroimidazol-1-yl)ethanol",CCCCCCC1=NCCN1CCO,629.42,11,"[1, 6, 7, 8]",4,True,CHON,alcohol
10164,2-[2-[2-(2-methoxyethoxy)ethoxy]propoxy]propan-1-ol,CC(CO)OCC(C)OCCOCCOC,632.26,11,"[1, 6, 8]",3,True,CHO,ester
10165,"undecane-1,4-diol",CCCCCCCC(CCCO)O,635.2,11,"[1, 6, 8]",3,True,CHO,alcohol
10166,"undecane-1,3-diol",CCCCCCCCC(CCO)O,635.2,11,"[1, 6, 8]",3,True,CHO,alcohol
10167,"undecane-1,2-diol",CCCCCCCCCC(CO)O,635.2,11,"[1, 6, 8]",3,True,CHO,alcohol
10168,"undecane-1,11-diol",C(CCCCCO)CCCCCO,635.64,11,"[1, 6, 8]",3,True,CHO,alcohol
10169,"N'-[3-[3-(dimethylamino)propylamino]propyl]propane-1,3-diamine",CN(C)CCCNCCCNCCCN,636.59,11,"[1, 6, 7]",3,True,CHN,amine
10170,"3-[3-(3-aminopropoxy)-2,2-dimethylpropoxy]propan-1-amine",CC(C)(COCCCN)COCCCN,637.95,11,"[1, 6, 7, 8]",4,True,CHON,ester
10171,"2-(dimethylamino)-3,5,6-trimethylcyclohexa-2,5-diene-1,4-dione",CC1=C(C(=O)C(=C(C1=O)C)N(C)C)C,641.82,11,"[1, 6, 7, 8]",4,True,CHON,ketone
10172,methyl 4-[4-acetyloxybutyl(nitroso)amino]butanoate,CC(=O)OCCCCN(CCCC(=O)OC)N=O,643.56,11,"[1, 6, 7, 8]",4,True,CHON,ester
10173,"4-N,4-N,5-N,5-N,2,2-hexamethyl-1,3-dioxolane-4,5-dicarboxamide",CC1(OC(C(O1)C(=O)N(C)C)C(=O)N(C)C)C,643.98,11,"[1, 6, 7, 8]",4,True,CHON,ester
10174,4-methoxycarbonylcubane-1-carboxylic acid,COC(=O)C12C3C4C1C5C2C3C45C(=O)O,645.29,11,"[1, 6, 8]",3,True,CHO,carboxylic_acid
10175,N-(2-hydroxypropyl)octanamide,CCCCCCCC(=O)NCC(C)O,647.06,11,"[1, 6, 7, 8]",4,True,CHON,alcohol
10176,diethyl 2-(ethoxymethylidene)-3-oxobutanedioate,CCOC=C(C(=O)C(=O)OCC)C(=O)OCC,648.05,11,"[1, 6, 8]",3,True,CHO,ester
10177,[2-(hydroxymethyl)-2-methylpentyl] N-propan-2-ylcarbamate,CCCC(C)(CO)COC(=O)NC(C)C,648.18,11,"[1, 6, 7, 8]",4,True,CHON,ester
10178,"1,3-bis(butoxymethyl)urea",CCCCOCNC(=O)NCOCCCC,650.33,11,"[1, 6, 7, 8]",4,True,CHON,ester
10179,"7-methoxy-3,7-dimethyloctane-1,2-diol",CC(CCCC(C)(C)OC)C(CO)O,653.95,11,"[1, 6, 8]",3,True,CHO,ester
10180,"1-(2-hydroxyethyl)-2,2,6,6-tetramethylpiperidin-4-ol",CC1(CC(CC(N1CCO)(C)C)O)C,654.5,11,"[1, 6, 7, 8]",4,True,CHON,alcohol
10181,10-methoxy-10-oxodecanoic acid,COC(=O)CCCCCCCCC(=O)O,655.01,11,"[1, 6, 8]",3,True,CHO,carboxylic_acid
10182,2-[2-[2-[2-(2-methoxyethoxy)ethoxy]ethoxy]ethoxy]ethanol,COCCOCCOCCOCCOCCO,655.56,11,"[1, 6, 8]",3,True,CHO,ester
10183,(3-butanoyloxy-2-hydroxypropyl) butanoate,CCCC(=O)OCC(COC(=O)CCC)O,659.46,11,"[1, 6, 8]",3,True,CHO,ester
10184,1-[3-(dimethylamino)propyl-(2-hydroxypropyl)amino]propan-2-ol,CC(CN(CCCN(C)C)CC(C)O)O,659.64,11,"[1, 6, 7, 8]",4,True,CHON,alcohol
10185,"methyl 4-hydroxy-2,2,6,6-tetramethylpiperidine-4-carboxylate",CC1(CC(CC(N1)(C)C)(C(=O)OC)O)C,661.16,11,"[1, 6, 7, 8]",4,True,CHON,ester
10186,"1-N,2-N-dimethoxy-3,3,5,5-tetramethylcyclopentane-1,2-diimine",CC1(/C(=N\OC)/C(=N/OC)/C(C1)(C)C)C,665.53,11,"[1, 6, 7, 8]",4,True,CHON,ester
10187,"1-N,2-N-dimethoxy-3,3,5,5-tetramethylcyclopentane-1,2-diimine",CC\1(CC(/C(=N\OC)/C1=N\OC)(C)C)C,665.53,11,"[1, 6, 7, 8]",4,True,CHON,ester
10188,"1-N,2-N-dimethoxy-3,3,5,5-tetramethylcyclopentane-1,2-diimine",CC1(/C(=N/OC)/C(=N\OC)/C(C1)(C)C)C,665.53,11,"[1, 6, 7, 8]",4,True,CHON,ester
10189,"1-benzylpyrrolidine-2,5-dione",C1CC(=O)N(C1=O)CC2=CC=CC=C2,666.15,11,"[1, 6, 7, 8]",4,True,CHON,amide
10190,2-hydroxy-5-methyl-3-piperidin-1-ylcyclopent-2-en-1-one,CC1CC(=C(C1=O)O)N2CCCCC2,668.07,11,"[1, 6, 7, 8]",4,True,CHON,ketone
10191,"undecane-1,6,11-triamine",C(CCC(CCCCCN)N)CCN,668.43,11,"[1, 6, 7]",3,True,CHN,amine