,Name,SMILES,Tb,C Atom,Atom,Count Unique Atom,Pass Screen,Atom2,Func. Group
10606,"8-methylidenepentacyclo[5.4.0.02,6.03,10.05,9]undecane",C=C1C2C3CC4C1C5C2CC3C45,475.93,12,"[1, 6]",2,True,CH,alkene
10607,"(3Z,5E)-2,2,7,7-tetramethylocta-3,5-diene",CC(C)(C)/C=C/C=C\C(C)(C)C,476.02,12,"[1, 6]",2,True,CH,alkene
10608,"3,3-dimethyldecane",CCCCCCCC(C)(C)CC,476.15,12,"[1, 6]",2,True,CH,alkane
10609,"3,3-diethyl-2-methylheptane",CCCCC(CC)(CC)C(C)C,476.15,12,"[1, 6]",2,True,CH,alkane
10610,"3-ethyl-2,3,4-trimethylheptane",CCCC(C)C(C)(CC)C(C)C,476.15,12,"[1, 6]",2,True,CH,alkane
10611,"2,3,3,4,4-pentamethylheptane",CCCC(C)(C)C(C)(C)C(C)C,476.15,12,"[1, 6]",2,True,CH,alkane
10612,"2,9-dimethyldecane",CC(C)CCCCCCC(C)C,477.15,12,"[1, 6]",2,True,CH,alkane
10613,4-ethyldecane,CCCCCCC(CC)CCC,477.15,12,"[1, 6]",2,True,CH,alkane
10614,3-ethyl-3-methylnonane,CCCCCCC(C)(CC)CC,477.15,12,"[1, 6]",2,True,CH,alkane
10615,"2,8-dimethyldecane",CCC(C)CCCCCC(C)C,477.15,12,"[1, 6]",2,True,CH,alkane
10616,"3,4-diethyl-2,3-dimethylhexane",CCC(CC)C(C)(CC)C(C)C,477.15,12,"[1, 6]",2,True,CH,alkane
10617,"4,4-diethyl-2,3-dimethylhexane",CCC(CC)(CC)C(C)C(C)C,477.15,12,"[1, 6]",2,True,CH,alkane
10618,"3-ethyl-2,2,3,4-tetramethylhexane",CCC(C)C(C)(CC)C(C)(C)C,477.15,12,"[1, 6]",2,True,CH,alkane
10619,"2,2,3,4-tetramethyl-3-propan-2-ylpentane",CC(C)C(C)(C(C)C)C(C)(C)C,477.15,12,"[1, 6]",2,True,CH,alkane
10620,"4,4-diethyl-3-methylheptane",CCCC(CC)(CC)C(C)CC,477.15,12,"[1, 6]",2,True,CH,alkane
10621,"2,3,4-trimethyl-3-propan-2-ylhexane",CCC(C)C(C)(C(C)C)C(C)C,477.15,12,"[1, 6]",2,True,CH,alkane
10622,"1,2-di(propan-2-yl)benzene",CC(C)C1=CC=CC=C1C(C)C,478.15,12,"[1, 6]",2,True,CH,aromatic
10623,3-methylpentan-3-ylbenzene,CCC(C)(CC)C1=CC=CC=C1,478.15,12,"[1, 6]",2,True,CH,aromatic
10624,"4-tert-butyl-1,2-dimethylbenzene",CC1=C(C=C(C=C1)C(C)(C)C)C,478.15,12,"[1, 6]",2,True,CH,aromatic
10625,"3,4-dimethyldecane",CCCCCCC(C)C(C)CC,478.15,12,"[1, 6]",2,True,CH,alkane
10626,"3,8-dimethyldecane",CCC(C)CCCCC(C)CC,478.15,12,"[1, 6]",2,True,CH,alkane
10627,"4-ethyl-3,3,4-trimethylheptane",CCCC(C)(CC)C(C)(C)CC,478.15,12,"[1, 6]",2,True,CH,alkane
10628,"3-ethyl-3,4,4-trimethylheptane",CCCC(C)(C)C(C)(CC)CC,478.15,12,"[1, 6]",2,True,CH,alkane
10629,"4-ethyl-3,4,5-trimethylheptane",CCC(C)C(C)(CC)C(C)CC,478.15,12,"[1, 6]",2,True,CH,alkane
10630,"3,3-diethyl-4-methylheptane",CCCC(C)C(CC)(CC)CC,478.15,12,"[1, 6]",2,True,CH,alkane
10631,(E)-dodec-2-ene,CCCCCCCCC/C=C/C,478.32,12,"[1, 6]",2,True,CH,alkene
10632,(E)-dodec-3-ene,CCCCCCCC/C=C/CC,478.32,12,"[1, 6]",2,True,CH,alkene
10633,(E)-dodec-4-ene,CCCCCCC/C=C/CCC,478.32,12,"[1, 6]",2,True,CH,alkene
10634,(Z)-dodec-2-ene,CCCCCCCCC/C=C\C,478.32,12,"[1, 6]",2,True,CH,alkene
10635,(E)-dodec-5-ene,CCCCCC/C=C/CCCC,478.32,12,"[1, 6]",2,True,CH,alkene
10636,(Z)-dodec-6-ene,CCCCC/C=C\CCCCC,478.32,12,"[1, 6]",2,True,CH,alkene
10637,(E)-dodec-6-ene,CCCCC/C=C/CCCCC,478.32,12,"[1, 6]",2,True,CH,alkene
10638,2-methylpentan-2-ylbenzene,CCCC(C)(C)C1=CC=CC=C1,478.65,12,"[1, 6]",2,True,CH,aromatic
10639,"(3E,5E)-2-methylundeca-1,3,5-triene",CCCCC/C=C/C=C/C(=C)C,479.04,12,"[1, 6]",2,True,CH,alkene
10640,5-methylundecane,CCCCCCC(C)CCCC,479.15,12,"[1, 6]",2,True,CH,alkane
10641,6-methylundecane,CCCCCC(C)CCCCC,479.15,12,"[1, 6]",2,True,CH,alkane
10642,"2,3-dimethyldecane",CCCCCCCC(C)C(C)C,479.15,12,"[1, 6]",2,True,CH,alkane
10643,"2,3,3,4,4,5-hexamethylhexane",CC(C)C(C)(C)C(C)(C)C(C)C,479.15,12,"[1, 6]",2,True,CH,alkane
10644,"2,2,3,4,4,5-hexamethylhexane",CC(C)C(C)(C)C(C)C(C)(C)C,479.15,12,"[1, 6]",2,True,CH,alkane
10645,"3,3-diethyl-2,2,4-trimethylpentane",CCC(CC)(C(C)C)C(C)(C)C,479.15,12,"[1, 6]",2,True,CH,alkane
10646,"3-ethyl-2,4-dimethyl-3-propan-2-ylpentane",CCC(C(C)C)(C(C)C)C(C)C,479.15,12,"[1, 6]",2,True,CH,alkane
10647,"3,3,4,4,5-pentamethylheptane",CCC(C)C(C)(C)C(C)(C)CC,479.15,12,"[1, 6]",2,True,CH,alkane
10648,"3,3,4-triethylhexane",CCC(CC)C(CC)(CC)CC,479.15,12,"[1, 6]",2,True,CH,alkane
10649,2-cyclopentylethylcyclopentane,C1CCC(C1)CCC2CCCC2,479.65,12,"[1, 6]",2,True,CH,alkane
10650,dodec-1-en-3-yne,CCCCCCCCC#CC=C,479.84,12,"[1, 6]",2,True,CH,alkene
10651,"3,3-dimethyldec-4-yne",CCCCCC#CC(C)(C)CC,479.93,12,"[1, 6]",2,True,CH,alkyne
10652,"pentacyclo[6.3.1.02,7.03,5.09,11]dodecane",C1C2C1C3C(C2)C4CC3C5C4C5,481.04,12,"[1, 6]",2,True,CH,alkane
10653,"1,3-dimethyladamantane",CC12CC3CC(C1)CC(C3)(C2)C,481.15,12,"[1, 6]",2,True,CH,alkane
10654,hexan-2-ylbenzene,CCCCC(C)C1=CC=CC=C1,481.15,12,"[1, 6]",2,True,CH,aromatic
10655,1-(1-pentoxyethoxy)pentane,CCCCCOC(C)OCCCCC,481.15,12,"[1, 6, 8]",3,True,CHO,ester
10656,"4-ethyl-2,2,3,4-tetramethylhexane",CCC(C)(CC)C(C)C(C)(C)C,481.15,12,"[1, 6]",2,True,CH,alkane
10657,"4-ethyl-2,3,3,4-tetramethylhexane",CCC(C)(CC)C(C)(C)C(C)C,481.15,12,"[1, 6]",2,True,CH,alkane
10658,"3-ethyl-2,3,4,4-tetramethylhexane",CCC(C)(C)C(C)(CC)C(C)C,481.15,12,"[1, 6]",2,True,CH,alkane
10659,"3,3,4,5,5-pentamethylheptane",CCC(C)(C)C(C)C(C)(C)CC,482.15,12,"[1, 6]",2,True,CH,alkane
10660,"2,9-dimethyldec-5-yne",CC(C)CCC#CCCC(C)C,482.28,12,"[1, 6]",2,True,CH,alkyne
10661,4-[(4-aminophenyl)diazenyl]phenol,C1=CC(=CC=C1N)N=NC2=CC=C(C=C2)O,483.15,12,"[1, 6, 7, 8]",4,True,CHON,alcohol
10662,"5-[2-(tert-butylamino)-1-hydroxyethyl]benzene-1,3-diol",CC(C)(C)NCC(C1=CC(=CC(=C1)O)O)O,483.15,12,"[1, 6, 7, 8]",4,True,CHON,alcohol
10663,"3,3-diethyl-4,4-dimethylhexane",CCC(C)(C)C(CC)(CC)CC,483.15,12,"[1, 6]",2,True,CH,alkane
10664,"3,4-diethyl-3,4-dimethylhexane",CCC(C)(CC)C(C)(CC)CC,483.15,12,"[1, 6]",2,True,CH,alkane
10665,dodec-5-yne,CCCCCCC#CCCCC,483.16,12,"[1, 6]",2,True,CH,alkyne
10666,dodec-4-yne,CCCCCCCC#CCCC,483.16,12,"[1, 6]",2,True,CH,alkyne
10667,3-aminophenazin-2-ol,C1=CC=C2C(=C1)N=C3C=C(C(=CC3=N2)O)N,483.65,12,"[1, 6, 7, 8]",4,True,CHON,alcohol
10668,"1,4-di(propan-2-yl)cyclohexane",CC(C)C1CCC(CC1)C(C)C,483.9,12,"[1, 6]",2,True,CH,alkane
10669,2-ethyl-1-methyl-4-propan-2-ylbenzene,CCC1=C(C=CC(=C1)C(C)C)C,484.15,12,"[1, 6]",2,True,CH,aromatic
10670,"pentacyclo[6.3.1.01,3.02,7.04,9]dodeca-5,10-diene",C1C2C3C=CC4C2C=CC15C3C54,484.27,12,"[1, 6]",2,True,CH,alkene
10671,"8,9-dimethyltricyclo[5.2.1.02,6]decane",CC1C(C2CC1C3C2CCC3)C,484.64,12,"[1, 6]",2,True,CH,alkane
10672,2-methylundec-1-ene,CCCCCCCCCC(=C)C,484.75,12,"[1, 6]",2,True,CH,alkene
10673,"2,2,4-trimethylpent-3-enyl 2-methylpropanoate",CC(C)C(=O)OCC(C)(C)C=C(C)C,485.15,12,"[1, 6, 8]",3,True,CHO,ester
10674,"2,2,7,7-tetramethylocta-3,5-diyne",CC(C)(C)C#CC#CC(C)(C)C,485.7,12,"[1, 6]",2,True,CH,alkyne
10675,dec-2-enyl acetate,CCCCCCCC=CCOC(=O)C,486.15,12,"[1, 6, 8]",3,True,CHO,ester
10676,"N,N-diethyloctan-1-amine",CCCCCCCCN(CC)CC,486.15,12,"[1, 6, 7]",3,True,CHN,amine
10677,"5-(diethoxymethyl)-1,3-benzodioxole",CCOC(C1=CC2=C(C=C1)OCO2)OCC,486.15,12,"[1, 6, 8]",3,True,CHO,ester
10678,"(4E,6E)-2-methylundeca-2,4,6-triene",CCCC/C=C/C=C/C=C(C)C,486.52,12,"[1, 6]",2,True,CH,alkene
10679,"3-ethyl-2,2,3,4,4-pentamethylpentane",CCC(C)(C(C)(C)C)C(C)(C)C,487.15,12,"[1, 6]",2,True,CH,alkane
10680,2-ethylhexyl butanoate,CCCCC(CC)COC(=O)CCC,488.15,12,"[1, 6, 8]",3,True,CHO,ester
10681,"3,4,5-trimethylnonan-2-one",CCCCC(C)C(C)C(C)C(=O)C,488.15,12,"[1, 6, 8]",3,True,CHO,ketone
10682,"1,3-di(propan-2-yl)cyclohexane",CC(C)C1CCCC(C1)C(C)C,488.16,12,"[1, 6]",2,True,CH,alkane
10683,1-(8-methoxy-2H-chromen-3-yl)ethanone,CC(=O)C1=CC2=C(C(=CC=C2)OC)OC1,488.65,12,"[1, 6, 8]",3,True,CHO,ester
10684,bis(2-methylpropyl) butanedioate,CC(C)COC(=O)CCC(=O)OCC(C)C,489.15,12,"[1, 6, 8]",3,True,CHO,ester
10685,"2,2,3,3,4,4-hexamethylhexane",CCC(C)(C)C(C)(C)C(C)(C)C,489.15,12,"[1, 6]",2,True,CH,alkane
10686,2-ethyladamantane,CCC1C2CC3CC(C2)CC1C3,489.31,12,"[1, 6]",2,True,CH,alkane
10687,"8-ethyltricyclo[5.2.1.02,6]decane",CCC1CC2CC1C3C2CCC3,489.31,12,"[1, 6]",2,True,CH,alkane
10688,"2,2-dimethyladamantane",CC1(C2CC3CC(C2)CC1C3)C,489.55,12,"[1, 6]",2,True,CH,alkane
10689,"tetracyclo[6.2.1.13,6.02,7]dodeca-4,9-diene",C1C2C=CC1C3C2C4CC3C=C4,490.1,12,"[1, 6]",2,True,CH,alkene
10690,4-methylpentylbenzene,CC(C)CCCC1=CC=CC=C1,490.15,12,"[1, 6]",2,True,CH,aromatic
10691,"dodeca-1,3,5,7,9,11-hexayne",C#CC#CC#CC#CC#CC#C,490.4,12,"[1, 6]",2,True,CH,alkyne
10692,"9,10-dimethylidenetricyclo[5.3.0.02,8]deca-3,5-diene",C=C1C2C3C=CC=CC2C3C1=C,490.62,12,"[1, 6]",2,True,CH,alkene
10693,2-methylundecane,CCCCCCCCCC(C)C,490.65,12,"[1, 6]",2,True,CH,alkane
10694,"(2E,5E,7E,10E)-dodeca-2,5,7,10-tetraene",C/C=C/C/C=C/C=C/C/C=C/C,490.8,12,"[1, 6]",2,True,CH,alkene
10695,"tetracyclo[6.2.1.13,6.02,7]dodec-4-ene",C1CC2CC1C3C2C4CC3C=C4,490.94,12,"[1, 6]",2,True,CH,alkene
10696,diethyl 2-[(2-methylpropan-2-yl)oxycarbonylamino]propanedioate,CCOC(=O)C(C(=O)OCC)NC(=O)OC(C)(C)C,491.15,12,"[1, 6, 7, 8]",4,True,CHON,ester
10697,"7,8-dimethylidenetricyclo[4.2.2.02,5]dec-3-ene",C=C1C2CCC(C1=C)C3C2C=C3,491.46,12,"[1, 6]",2,True,CH,alkene
10698,"1,2,3,5,6-pentamethyl-4-methylidenebicyclo[3.1.0]hex-2-ene",CC1C2(C1(C(=C)C(=C2C)C)C)C,491.73,12,"[1, 6]",2,True,CH,alkene
10699,"tetracyclo[6.2.1.13,6.02,7]dodecane",C1CC2CC1C3C2C4CCC3C4,491.78,12,"[1, 6]",2,True,CH,alkane
10700,"tetracyclo[7.2.1.04,11.06,10]dodecane",C1CC2CC3CCC4C3C2C1C4,491.78,12,"[1, 6]",2,True,CH,alkane
10701,"dodeca-5,7-diyne",CCCCC#CC#CCCCC,492.16,12,"[1, 6]",2,True,CH,alkyne
10702,"dodeca-2,10-diyne",CC#CCCCCCCC#CC,492.16,12,"[1, 6]",2,True,CH,alkyne
10703,"dodeca-3,9-diyne",CCC#CCCCCC#CCC,492.16,12,"[1, 6]",2,True,CH,alkyne
10704,heptan-2-ylcyclopentane,CCCCCC(C)C1CCCC1,492.2,12,"[1, 6]",2,True,CH,alkane
10705,"3,4-dimethylidenetricyclo[4.2.2.02,5]decane",C=C1C2C3CCC(C2C1=C)CC3,492.3,12,"[1, 6]",2,True,CH,alkene
10706,dodec-3-yne,CCCCCCCCC#CCC,492.55,12,"[1, 6]",2,True,CH,alkyne
10707,3-hexylcyclohexene,CCCCCCC1CCCC=C1,492.87,12,"[1, 6]",2,True,CH,alkene
10708,3-methylpentylbenzene,CCC(C)CCC1=CC=CC=C1,493.15,12,"[1, 6]",2,True,CH,aromatic
10709,"4,4-dimethyl-2,3-dihydro-1H-naphthalene",CC1(CCCC2=CC=CC=C21)C,494.15,12,"[1, 6]",2,True,CH,aromatic
10710,"1,2,4-trimethyl-5-propan-2-ylbenzene",CC1=CC(=C(C=C1C)C(C)C)C,494.15,12,"[1, 6]",2,True,CH,aromatic
10711,1-ethyladamantane,CCC12CC3CC(C1)CC(C3)C2,494.22,12,"[1, 6]",2,True,CH,alkane
10712,"2-ethylidene-1,7,7-trimethylbicyclo[2.2.1]heptane",CC=C1CC2CCC1(C2(C)C)C,494.36,12,"[1, 6]",2,True,CH,alkene
10713,"9-propan-2-ylidenetricyclo[4.2.1.02,5]nona-3,7-diene",CC(=C1C2C=CC1C3C2C=C3)C,494.55,12,"[1, 6]",2,True,CH,alkene
10714,"2-propan-2-ylidenetricyclo[4.2.1.03,9]nona-4,7-diene",CC(=C1C2C=CC3C2C1C=C3)C,494.55,12,"[1, 6]",2,True,CH,alkene
10715,"9-propan-2-ylidenetricyclo[4.2.1.02,5]non-7-ene",CC(=C1C2C=CC1C3C2CC3)C,495.39,12,"[1, 6]",2,True,CH,alkene
10716,"5,6-dimethylidene-7-propan-2-ylidenebicyclo[2.2.1]hept-2-ene",CC(=C1C2C=CC1C(=C)C2=C)C,495.91,12,"[1, 6]",2,True,CH,alkene
10717,3-(butoxymethyl)heptane,CCCCC(CC)COCCCC,496.14,12,"[1, 6, 8]",3,True,CHO,ester
10718,"9-propan-2-ylidenetricyclo[4.2.1.02,5]nonane",CC(=C1C2CCC1C3C2CC3)C,496.23,12,"[1, 6]",2,True,CH,alkene
10719,"2-propan-2-ylidenetricyclo[4.2.1.03,9]nonane",CC(=C1C2CCC3C2C1CC3)C,496.23,12,"[1, 6]",2,True,CH,alkene
10720,1-methoxyundecane,CCCCCCCCCCCOC,496.58,12,"[1, 6, 8]",3,True,CHO,ester
10721,1-ethoxydecane,CCCCCCCCCCOCC,496.58,12,"[1, 6, 8]",3,True,CHO,ester
10722,1-ethenyladamantane,C=CC12CC3CC(C1)CC(C3)C2,497.15,12,"[1, 6]",2,True,CH,alkene
10723,1-ethenoxydecane,CCCCCCCCCCOC=C,497.8,12,"[1, 6, 8]",3,True,CHO,ester
10724,ethyl (E)-2-methyl-3-phenylprop-2-enoate,CCOC(=O)/C(=C/C1=CC=CC=C1)/C,498.15,12,"[1, 6, 8]",3,True,CHO,ester
10725,"tetracyclo[4.2.2.22,5.01,6]dodeca-3,7,9,11-tetraene",C1=CC2C=CC1C34C2(C=C3)C=C4,498.24,12,"[1, 6]",2,True,CH,alkene
10726,"3,3,8,8-tetramethylcyclooctyne",CC1(CCCCC(C#C1)(C)C)C,498.52,12,"[1, 6]",2,True,CH,alkyne
10727,"N,N,N',N'-tetraethylbutane-1,4-diamine",CCN(CC)CCCCN(CC)CC,499.04,12,"[1, 6, 7]",3,True,CHN,amine
10728,dodec-2-yne,CCCCCCCCCC#CC,499.15,12,"[1, 6]",2,True,CH,alkyne
10729,"1,4-dimethyl-1,2,3,4-tetrahydronaphthalene",CC1CCC(C2=CC=CC=C12)C,499.15,12,"[1, 6]",2,True,CH,aromatic
10730,"4a,4b,8a,8b-tetrahydrobiphenylene",C1=CC2C(C=C1)C3C2C=CC=C3,499.16,12,"[1, 6]",2,True,CH,alkene
10731,"tricyclo[5.4.1.04,12]dodeca-2,5,8,10-tetraene",C1=CC2C=CC3C2C(C=C1)C=C3,499.16,12,"[1, 6]",2,True,CH,alkene
10732,"tricyclo[5.5.0.02,8]dodeca-3,5,9,11-tetraene",C1=CC2C3C=CC=CC2C3C=C1,499.16,12,"[1, 6]",2,True,CH,alkene
10733,"N,N-bis(prop-2-enyl)cyclohexanamine",C=CCN(CC=C)C1CCCCC1,499.51,12,"[1, 6, 7]",3,True,CHN,alkene
10734,"tetracyclo[4.2.2.22,5.01,6]dodeca-7,9-diene",C1CC2CCC1C34C2(C=C3)C=C4,499.92,12,"[1, 6]",2,True,CH,alkene
10735,"tetracyclo[4.2.2.22,5.01,6]dodeca-3,11-diene",C1CC23C1(CC2)C4C=CC3C=C4,499.92,12,"[1, 6]",2,True,CH,alkene
10736,2-methylpropyl 2-ethylhexanoate,CCCCC(CC)C(=O)OCC(C)C,500.15,12,"[1, 6, 8]",3,True,CHO,ester
10737,"8-ethoxy-2,6-dimethyloct-2-ene",CCOCCC(C)CCC=C(C)C,500.18,12,"[1, 6, 8]",3,True,CHO,ester
10738,"tricyclo[6.2.2.02,7]dodeca-3,9-diene",C1CC2C3CCC(C2C=C1)C=C3,500.84,12,"[1, 6]",2,True,CH,alkene
10739,"tricyclo[5.5.0.02,8]dodeca-3,5-diene",C1CCC2C3C=CC=CC2C3C1,500.84,12,"[1, 6]",2,True,CH,alkene
10740,"tetracyclo[4.2.2.22,5.01,6]dodecane",C1CC2CCC1C34C2(CC3)CC4,501.6,12,"[1, 6]",2,True,CH,alkane
10741,"2,4-di(propan-2-yl)phenol",CC(C)C1=CC(=C(C=C1)O)C(C)C,502.15,12,"[1, 6, 8]",3,True,CHO,aromatic
10742,butylcyclooctane,CCCCC1CCCCCCC1,502.25,12,"[1, 6]",2,True,CH,alkane
10743,"tricyclo[6.2.1.13,6]dodecane",C1CC2CC1CC3CCC(C3)C2,502.52,12,"[1, 6]",2,True,CH,alkane
10744,"tricyclo[6.2.2.02,7]dodecane",C1CCC2C3CCC(C2C1)CC3,502.52,12,"[1, 6]",2,True,CH,alkane
10745,"1,2,3,3a,4,5,5a,6,7,8,8a,8b-dodecahydroacenaphthylene",C1CC2CCCC3C2C(C1)CC3,502.52,12,"[1, 6]",2,True,CH,alkane
10746,"tricyclo[5.5.0.02,8]dodecane",C1CCC2C3CCCCC2C3C1,502.52,12,"[1, 6]",2,True,CH,alkane
10747,"5-ethyl-5-(4-methylpentan-2-yl)-1,3-diazinane-2,4,6-trione",CCC1(C(=O)NC(=O)NC1=O)C(C)CC(C)C,503.15,12,"[1, 6, 7, 8]",4,True,CHON,amide
10748,"3,3-dimethyl-2,4-dihydro-1H-naphthalene",CC1(CCC2=CC=CC=C2C1)C,503.15,12,"[1, 6]",2,True,CH,aromatic
10749,2-butyloctanoic acid,CCCCCCC(CCCC)C(=O)O,503.15,12,"[1, 6, 8]",3,True,CHO,alcohol
10750,"(E)-N,N,N',N'-tetraethylbut-2-ene-1,4-diamine",CCN(CC)C/C=C/CN(CC)CC,503.2,12,"[1, 6, 7]",3,True,CHN,alkene
10751,1-methoxy-4-(2-methoxypropan-2-yl)-1-methylcyclohexane,CC1(CCC(CC1)C(C)(C)OC)OC,504.15,12,"[1, 6, 8]",3,True,CHO,ester
10752,1-cyclopentylethylcyclopentane,CC(C1CCCC1)C2CCCC2,504.28,12,"[1, 6]",2,True,CH,alkane
10753,"1,2,3-tri(propan-2-ylidene)cyclopropane",CC(=C1C(=C(C)C)C1=C(C)C)C,505.13,12,"[1, 6]",2,True,CH,alkene
10754,(5-methyl-2-prop-1-en-2-ylcyclohexyl) acetate,CC1CCC(C(C1)OC(=O)C)C(=C)C,505.15,12,"[1, 6, 8]",3,True,CHO,ester
10755,9-tert-butyl-9-azabicyclo[3.3.1]nonane,CC(C)(C)N1C2CCCC1CCC2,505.39,12,"[1, 6, 7]",3,True,CHN,amine
10756,"1,2,3,4,5,6-hexamethylbicyclo[2.2.0]hexa-2,5-diene",CC1=C(C2(C1(C(=C2C)C)C)C)C,506.36,12,"[1, 6]",2,True,CH,alkene
10757,"N,N-dimethyladamantan-1-amine",CN(C)C12CC3CC(C1)CC(C3)C2,506.66,12,"[1, 6, 7]",3,True,CHN,amine
10758,cyclopentylmethylbenzene,C1CCC(C1)CC2=CC=CC=C2,507.15,12,"[1, 6]",2,True,CH,aromatic
10759,N-(1-phenylethyl)butan-1-amine,CCCCNC(C)C1=CC=CC=C1,507.15,12,"[1, 6, 7]",3,True,CHN,aromatic
10760,diethyl 2-ethyl-2-propan-2-ylpropanedioate,CCC(C(C)C)(C(=O)OCC)C(=O)OCC,507.15,12,"[1, 6, 8]",3,True,CHO,ester
10761,"2-methylidenetricyclo[3.3.3.01,5]undecane",C=C1CCC23C1(CCC2)CCC3,507.23,12,"[1, 6]",2,True,CH,alkene
10762,4-tert-butyl-2-methoxy-1-methylidenecyclohexane,CC(C)(C)C1CCC(=C)C(C1)OC,507.39,12,"[1, 6, 8]",3,True,CHO,ester
10763,2-decyloxirane,CCCCCCCCCCC1CO1,507.85,12,"[1, 6, 8]",3,True,CHO,ester
10764,"N,N,N',N'-tetraethylbut-2-yne-1,4-diamine",CCN(CC)CC#CCN(CC)CC,508.04,12,"[1, 6, 7]",3,True,CHN,alkyne
10765,"tricyclo[4.4.2.01,6]dodeca-2,4,7,9,11-pentaene",C1=CC23C=CC=CC2(C=C1)C=C3,508.14,12,"[1, 6]",2,True,CH,alkene
10766,4-octylmorpholine,CCCCCCCCN1CCOCC1,508.15,12,"[1, 6, 7, 8]",4,True,CHON,ester
10767,cyclohex-2-en-1-ylbenzene,C1CC=CC(C1)C2=CC=CC=C2,508.15,12,"[1, 6]",2,True,CH,alkene
10768,"tetracyclo[6.2.1.13,6.02,7]dodeca-2(7),4,9-triene",C1C2C=CC1C3=C2C4CC3C=C4,508.56,12,"[1, 6]",2,True,CH,alkene
10769,3-phenylhexan-2-one,CCCC(C1=CC=CC=C1)C(=O)C,508.65,12,"[1, 6, 8]",3,True,CHO,aromatic
10770,"1,2-dipropoxybenzene",CCCOC1=CC=CC=C1OCCC,508.65,12,"[1, 6, 8]",3,True,CHO,ester
10771,"tricyclo[4.4.2.01,6]dodeca-2,4,7,9-tetraene",C1CC23C1(C=CC=C2)C=CC=C3,508.98,12,"[1, 6]",2,True,CH,alkene
10772,"tricyclo[4.4.2.01,6]dodeca-2,4,8,11-tetraene",C1C=CCC23C1(C=CC=C2)C=C3,508.98,12,"[1, 6]",2,True,CH,alkene
10773,"1,2,3-trimethyl-1H-indene",CC1C(=C(C2=CC=CC=C12)C)C,509.0,12,"[1, 6]",2,True,CH,alkene
10774,"tetracyclo[6.2.1.13,6.02,7]dodeca-2(7),4-diene",C1CC2CC1C3=C2C4CC3C=C4,509.4,12,"[1, 6]",2,True,CH,alkene
10775,"tricyclo[4.4.2.01,6]dodeca-3,8,11-triene",C1C=CCC23C1(CC=CC2)C=C3,509.82,12,"[1, 6]",2,True,CH,alkene
10776,"tricyclo[4.4.2.01,6]dodeca-2,4,11-triene",C1CCC23C=CC=CC2(C1)C=C3,509.82,12,"[1, 6]",2,True,CH,alkene
10777,"tricyclo[4.4.2.01,6]dodeca-2,4,8-triene",C1CC23C1(CC=CC2)C=CC=C3,509.82,12,"[1, 6]",2,True,CH,alkene
10778,"2,7-dimethyl-1,2,3,4-tetrahydronaphthalene",CC1CCC2=C(C1)C=C(C=C2)C,510.15,12,"[1, 6]",2,True,CH,aromatic
10779,"tetracyclo[6.2.1.13,6.02,7]dodec-2(7)-ene",C1CC2CC1C3=C2C4CCC3C4,510.24,12,"[1, 6]",2,True,CH,alkene
10780,"tricyclo[4.4.2.01,6]dodeca-3,8-diene",C1CC23C1(CC=CC2)CC=CC3,510.66,12,"[1, 6]",2,True,CH,alkene
10781,"tricyclo[4.4.2.01,6]dodeca-3,11-diene",C1CCC23CC=CCC2(C1)C=C3,510.66,12,"[1, 6]",2,True,CH,alkene
10782,"tricyclo[4.4.2.01,6]dodeca-2,4-diene",C1CCC23CCC2(C1)C=CC=C3,510.66,12,"[1, 6]",2,True,CH,alkene
10783,"dispiro[2.0.24.63]dodeca-1,5-diene",C1CCCC2(C=C2)C3(CC1)C=C3,510.66,12,"[1, 6]",2,True,CH,alkene
10784,"(1Z,5Z,9Z)-cyclododeca-1,5,9-triene",C1/C=C\CC/C=C\CC/C=C\C1,510.7,12,"[1, 6]",2,True,CH,alkene
10785,"1,5-dimethyl-3-prop-2-enyl-2-oxabicyclo[2.2.2]octane",CC1CC2(CCC1C(O2)CC=C)C,510.71,12,"[1, 6, 8]",3,True,CHO,ester
10786,1-methoxy-4-(2-methylbutan-2-yl)benzene,CCC(C)(C)C1=CC=C(C=C1)OC,511.15,12,"[1, 6, 8]",3,True,CHO,ester
10787,"tricyclo[4.4.2.01,6]dodec-11-ene",C1CCC23CCCCC2(C1)C=C3,511.5,12,"[1, 6]",2,True,CH,alkene
10788,3-cyclohex-2-en-1-ylcyclohexene,C1CC=CC(C1)C2CCCC=C2,511.58,12,"[1, 6]",2,True,CH,alkene
10789,"3-methyltricyclo[6.2.1.02,7]undec-2(7)-ene",CC1CCCC2=C1C3CCC2C3,512.04,12,"[1, 6]",2,True,CH,alkene
10790,dispiro[2.0.24.63]dodecane,C1CCCC2(CC2)C3(CC1)CC3,512.34,12,"[1, 6]",2,True,CH,alkane
10791,3-cyclohexylcyclohexene,C1CCC(CC1)C2CCCC=C2,512.42,12,"[1, 6]",2,True,CH,alkene
10792,"3,4-diethyl-3,4-dimethoxyhexane",CCC(CC)(C(CC)(CC)OC)OC,512.54,12,"[1, 6, 8]",3,True,CHO,ester
10793,"1-ethyl-1,2,3,4,4a,5,6,7,8,8a-decahydronaphthalene",CCC1CCCC2C1CCCC2,513.05,12,"[1, 6]",2,True,CH,alkane
10794,1-methyl-4-(3-methylbutoxy)benzene,CC1=CC=C(C=C1)OCCC(C)C,513.15,12,"[1, 6, 8]",3,True,CHO,ester
10795,"2,6-dimethyl-1,2,3,4-tetrahydronaphthalene",CC1CCC2=C(C1)C=CC(=C2)C,513.15,12,"[1, 6]",2,True,CH,aromatic
10796,cyclopentylcycloheptane,C1CCCC(CC1)C2CCCC2,513.26,12,"[1, 6]",2,True,CH,alkane
10797,diethyl 2-(3-methylbutyl)propanedioate,CCOC(=O)C(CCC(C)C)C(=O)OCC,514.15,12,"[1, 6, 8]",3,True,CHO,ester
10798,tert-butyl octanoate,CCCCCCCC(=O)OC(C)(C)C,514.15,12,"[1, 6, 8]",3,True,CHO,ester
10799,N-ethyldecan-1-amine,CCCCCCCCCCNCC,514.15,12,"[1, 6, 7]",3,True,CHN,amine
10800,1-ethyl-2-isocyanato-3-propan-2-ylbenzene,CCC1=C(C(=CC=C1)C(C)C)N=C=O,514.15,12,"[1, 6, 7, 8]",4,True,CHON,aromatic
10801,4-methyl-7-propan-2-yl-1-benzofuran,CC1=C2C=COC2=C(C=C1)C(C)C,514.65,12,"[1, 6, 8]",3,True,CHO,aromatic
10802,1-tert-butyl-2-isocyanato-3-methylbenzene,CC1=C(C(=CC=C1)C(C)(C)C)N=C=O,515.15,12,"[1, 6, 7, 8]",4,True,CHON,aromatic
10803,"10-methoxytricyclo[4.3.1.12,5]undec-3-ene",COC1C2CCCC1C3CC2C=C3,515.16,12,"[1, 6, 8]",3,True,CHO,ester
10804,"2-ethyl-1,2,3,4-tetrahydronaphthalene",CCC1CCC2=CC=CC=C2C1,515.75,12,"[1, 6]",2,True,CH,aromatic
10805,"10-methoxytricyclo[4.3.1.12,5]undecane",COC1C2CCCC1C3CCC2C3,516.0,12,"[1, 6, 8]",3,True,CHO,ester
10806,3-phenylpropyl propanoate,CCC(=O)OCCCC1=CC=CC=C1,517.15,12,"[1, 6, 8]",3,True,CHO,ester