,Name,SMILES,Tb,C Atom,Atom,Count Unique Atom,Pass Screen,Atom2,Func. Group
7837,(2-ethoxyphenyl)methanol,CCOC1=CC=CC=C1CO,538.15,9,"[1, 6, 8]",3,True,CHO,ester
7838,1-(1-prop-2-enoxypropan-2-yloxy)propan-2-ol,CC(COC(C)COCC=C)O,538.34,9,"[1, 6, 8]",3,True,CHO,ester
7839,1-ethoxy-3-[(2-methylpropan-2-yl)oxy]propan-2-ol,CCOCC(COC(C)(C)C)O,538.87,9,"[1, 6, 8]",3,True,CHO,ester
7840,5-methoxy-1-benzofuran,COC1=CC2=C(C=C1)OC=C2,539.15,9,"[1, 6, 8]",3,True,CHO,ester
7841,non-2-ynamide,CCCCCCC#CC(=O)N,540.92,9,"[1, 6, 7, 8]",4,True,CHON,alkyne
7842,cubane-1-carboxylic acid,C12C3C4C1C5C2C3C45C(=O)O,541.07,9,"[1, 6, 8]",3,True,CHO,alcohol
7843,methyl 4-tert-butylperoxy-4-oxobutanoate,CC(C)(C)OOC(=O)CCC(=O)OC,541.15,9,"[1, 6, 8]",3,True,CHO,ester
7844,non-8-ynoic acid,C#CCCCCCCC(=O)O,541.15,9,"[1, 6, 8]",3,True,CHO,alkyne
7845,tert-butyl 4-methylperoxy-4-oxobutanoate,CC(C)(C)OC(=O)CCC(=O)OOC,541.15,9,"[1, 6, 8]",3,True,CHO,ester
7846,tert-butyl piperazine-1-carboxylate,CC(C)(C)OC(=O)N1CCNCC1,541.45,9,"[1, 6, 7, 8]",4,True,CHON,ester
7847,2-(2-pentoxyethoxy)ethanol,CCCCCOCCOCCO,542.54,9,"[1, 6, 8]",3,True,CHO,ester
7848,"1,1-bis(2-methylpropyl)urea",CC(C)CN(CC(C)C)C(=O)N,543.48,9,"[1, 6, 7, 8]",4,True,CHON,amide
7849,"3,9-dimethyl-2,4,8,10-tetraoxaspiro[5.5]undecane",CC1OCC2(CO1)COC(OC2)C,543.72,9,"[1, 6, 8]",3,True,CHO,ester
7850,4-methyl-2-prop-2-enylpent-4-enoic acid,CC(=C)CC(CC=C)C(=O)O,543.83,9,"[1, 6, 8]",3,True,CHO,alkene
7851,"4-methoxybenzene-1,3-dicarboxylic acid",COC1=C(C=C(C=C1)C(=O)O)C(=O)O,544.15,9,"[1, 6, 8]",3,True,CHO,carboxylic_acid
7852,3-(azepan-1-yl)propanenitrile,C1CCCN(CC1)CCC#N,544.26,9,"[1, 6, 7]",3,True,CHN,amine
7853,"10-methyl-1,4,7-trioxa-10-azacyclododecane",CN1CCOCCOCCOCC1,544.38,9,"[1, 6, 7, 8]",4,True,CHON,ester
7854,2-methylbicyclo[2.2.1]hept-5-ene-2-carboxamide,CC1(CC2CC1C=C2)C(=O)N,544.4,9,"[1, 6, 7, 8]",4,True,CHON,alkene
7855,tert-butyl (E)-4-methylperoxy-4-oxobut-2-enoate,CC(C)(C)OC(=O)/C=C/C(=O)OOC,545.31,9,"[1, 6, 8]",3,True,CHO,ester
7856,methyl (E)-4-tert-butylperoxy-4-oxobut-2-enoate,CC(C)(C)OOC(=O)/C=C/C(=O)OC,545.31,9,"[1, 6, 8]",3,True,CHO,ester
7857,3-methyl-3H-2-benzofuran-1-one,CC1C2=CC=CC=C2C(=O)O1,546.15,9,"[1, 6, 8]",3,True,CHO,ester
7858,ethyl 2-(2-oxocyclopentyl)acetate,CCOC(=O)CC1CCCC1=O,546.84,9,"[1, 6, 8]",3,True,CHO,ester
7859,"5,5-dimethyl-3-(methylamino)cyclohex-2-en-1-one",CC1(CC(=CC(=O)C1)NC)C,547.44,9,"[1, 6, 7, 8]",4,True,CHON,ketone
7860,"2,4,6-triethoxy-1,3,5-triazine",CCOC1=NC(=NC(=N1)OCC)OCC,547.65,9,"[1, 6, 7, 8]",4,True,CHON,ester
7861,"2,4,6-trimethylbenzene-1,3-diol",CC1=CC(=C(C(=C1O)C)O)C,547.65,9,"[1, 6, 8]",3,True,CHO,aromatic
7862,non-8-enoic acid,C=CCCCCCCC(=O)O,547.71,9,"[1, 6, 8]",3,True,CHO,alkene
7863,"N'-cyclohexylpropane-1,3-diamine",C1CCC(CC1)NCCCN,547.77,9,"[1, 6, 7]",3,True,CHN,amine
7864,"3,3-diethylpentanoic acid",CCC(CC)(CC)CC(=O)O,547.8,9,"[1, 6, 8]",3,True,CHO,alcohol
7865,3-ethyl-3-methylhexanoic acid,CCCC(C)(CC)CC(=O)O,547.8,9,"[1, 6, 8]",3,True,CHO,alcohol
7866,N-cyclohexylaziridine-1-carboxamide,C1CCC(CC1)NC(=O)N2CC2,548.69,9,"[1, 6, 7, 8]",4,True,CHON,amide
7867,ethyl 2-oxo-2-piperidin-1-ylacetate,CCOC(=O)C(=O)N1CCCCC1,550.0,9,"[1, 6, 7, 8]",4,True,CHON,ester
7868,(E)-4-hydroxynon-2-enal,CCCCCC(/C=C/C=O)O,550.08,9,"[1, 6, 8]",3,True,CHO,alkene
7869,"2,2-dimethyl-6-oxoheptanoic acid",CC(=O)CCCC(C)(C)C(=O)O,550.15,9,"[1, 6, 8]",3,True,CHO,carboxylic_acid
7870,2-ethyl-3-methylhexanoic acid,CCCC(C)C(CC)C(=O)O,550.15,9,"[1, 6, 8]",3,True,CHO,alcohol
7871,2-methyloctanoic acid,CCCCCCC(C)C(=O)O,550.59,9,"[1, 6, 8]",3,True,CHO,alcohol
7872,2-propylhexanoic acid,CCCCC(CCC)C(=O)O,550.59,9,"[1, 6, 8]",3,True,CHO,alcohol
7873,2-ethylheptanoic acid,CCCCCC(CC)C(=O)O,550.59,9,"[1, 6, 8]",3,True,CHO,alcohol
7874,3-methyloctanoic acid,CCCCCC(C)CC(=O)O,550.59,9,"[1, 6, 8]",3,True,CHO,alcohol
7875,7-methyloctanoic acid,CC(C)CCCCCC(=O)O,550.59,9,"[1, 6, 8]",3,True,CHO,alcohol
7876,4-methyloctanoic acid,CCCCC(C)CCC(=O)O,550.59,9,"[1, 6, 8]",3,True,CHO,alcohol
7877,ethyl 4-oxocyclohexane-1-carboxylate,CCOC(=O)C1CCC(=O)CC1,551.11,9,"[1, 6, 8]",3,True,CHO,ester
7878,"5-(aminomethyl)-2,2,4-trimethylcyclopentan-1-amine",CC1CC(C(C1CN)N)(C)C,552.09,9,"[1, 6, 7]",3,True,CHN,amine
7879,"3,3,5,5-tetramethylcyclopentane-1,2-dione",CC1(CC(C(=O)C1=O)(C)C)C,552.25,9,"[1, 6, 8]",3,True,CHO,ketone
7880,"4,4,5,5-tetramethylcyclopentane-1,3-dione",CC1(C(=O)CC(=O)C1(C)C)C,552.25,9,"[1, 6, 8]",3,True,CHO,ketone
7881,3-(2-butoxyethoxy)propanenitrile,CCCCOCCOCCC#N,552.44,9,"[1, 6, 7, 8]",4,True,CHON,ester
7882,dimethyl 2-[(E)-3-methoxyprop-2-enylidene]propanedioate,CO/C=C/C=C(C(=O)OC)C(=O)OC,552.58,9,"[1, 6, 8]",3,True,CHO,ester
7883,4-ethyl-4-formylhexanenitrile,CCC(CC)(CCC#N)C=O,553.03,9,"[1, 6, 7, 8]",4,True,CHON,aldehyde
7884,"2-methyl-2-prop-2-enylcyclopentane-1,3-dione",CC1(C(=O)CCC1=O)CC=C,553.36,9,"[1, 6, 8]",3,True,CHO,alkene
7885,"7,7-dimethylbicyclo[2.2.1]hept-5-ene-2,3-dione",CC1(C2C=CC1C(=O)C2=O)C,553.64,9,"[1, 6, 8]",3,True,CHO,alkene
7886,"3,3-dimethylbicyclo[2.2.1]heptane-2,5-dione",CC1(C2CC(C1=O)CC2=O)C,554.48,9,"[1, 6, 8]",3,True,CHO,ketone
7887,(E)-non-3-enoic acid,CCCCC/C=C/CC(=O)O,555.19,9,"[1, 6, 8]",3,True,CHO,alkene
7888,methyl 2-oxocycloheptane-1-carboxylate,COC(=O)C1CCCCCC1=O,555.38,9,"[1, 6, 8]",3,True,CHO,ester
7889,hexyl 2-hydroxypropanoate,CCCCCCOC(=O)C(C)O,555.48,9,"[1, 6, 8]",3,True,CHO,ester
7890,2-hydroxyheptyl acetate,CCCCCC(COC(=O)C)O,555.48,9,"[1, 6, 8]",3,True,CHO,ester
7891,3-hydroxyheptyl acetate,CCCCC(CCOC(=O)C)O,555.48,9,"[1, 6, 8]",3,True,CHO,ester
7892,butyl 4-hydroxypentanoate,CCCCOC(=O)CCC(C)O,555.48,9,"[1, 6, 8]",3,True,CHO,ester
7893,2-methyl-N-(oxan-2-yl)propanamide,CC(C)C(=O)NC1CCCCO1,555.62,9,"[1, 6, 7, 8]",4,True,CHON,ester
7894,"tricyclo[4.2.1.02,5]non-7-ene-3,4-dione",C1C2C=CC1C3C2C(=O)C3=O,555.87,9,"[1, 6, 8]",3,True,CHO,alkene
7895,N-(oxan-2-yl)butanamide,CCCC(=O)NC1CCCCO1,556.06,9,"[1, 6, 7, 8]",4,True,CHON,ester
7896,"2,5,5-trimethylcyclohexane-1,3-dione",CC1C(=O)CC(CC1=O)(C)C,556.28,9,"[1, 6, 8]",3,True,CHO,ketone
7897,"2,2,6-trimethylcyclohexane-1,4-dione",CC1CC(=O)CC(C1=O)(C)C,556.28,9,"[1, 6, 8]",3,True,CHO,ketone
7898,"4-butylcyclopentane-1,3-dione",CCCCC1CC(=O)CC1=O,556.44,9,"[1, 6, 8]",3,True,CHO,ketone
7899,tert-butyl 2-oxopyrrolidine-1-carboxylate,CC(C)(C)OC(=O)N1CCCC1=O,556.45,9,"[1, 6, 7, 8]",4,True,CHON,ester
7900,"tricyclo[4.2.1.02,5]nonane-3,4-dione",C1CC2CC1C3C2C(=O)C3=O,556.71,9,"[1, 6, 8]",3,True,CHO,ketone
7901,"2,6-dimethoxybenzaldehyde",COC1=C(C(=CC=C1)OC)C=O,558.15,9,"[1, 6, 8]",3,True,CHO,ester
7902,"1,1-di(butan-2-yl)urea",CCC(C)N(C(C)CC)C(=O)N,558.85,9,"[1, 6, 7, 8]",4,True,CHON,amide
7903,non-2-ynoic acid,CCCCCCC#CC(=O)O,560.03,9,"[1, 6, 8]",3,True,CHO,alkyne
7904,non-6-ynoic acid,CCC#CCCCCC(=O)O,560.03,9,"[1, 6, 8]",3,True,CHO,alkyne
7905,non-5-ynoic acid,CCCC#CCCCC(=O)O,560.03,9,"[1, 6, 8]",3,True,CHO,alkyne
7906,2-(4-methylanilino)ethanol,CC1=CC=C(C=C1)NCCO,560.15,9,"[1, 6, 7, 8]",4,True,CHON,aromatic
7907,"2-propan-2-ylcyclohexane-1,3-dione",CC(C)C1C(=O)CCCC1=O,560.27,9,"[1, 6, 8]",3,True,CHO,ketone
7908,"N'-(2-piperidin-1-ylethyl)ethane-1,2-diamine",C1CCN(CC1)CCNCCN,560.61,9,"[1, 6, 7]",3,True,CHN,amine
7909,"spiro[bicyclo[2.2.1]hept-5-ene-7,1'-cyclopropane]-2,3-dione",C1CC12C3C=CC2C(=O)C3=O,560.78,9,"[1, 6, 8]",3,True,CHO,alkene
7910,1-tert-butylperoxy-3-ethoxypropan-2-ol,CCOCC(COOC(C)(C)C)O,561.29,9,"[1, 6, 8]",3,True,CHO,ester
7911,"spiro[bicyclo[2.2.1]heptane-7,1'-cyclopropane]-2,3-dione",C1CC2C(=O)C(=O)C1C23CC3,561.62,9,"[1, 6, 8]",3,True,CHO,ketone
7912,3-ethyl-2H-indazole,CCC1=C2C=CC=CC2=NN1,563.15,9,"[1, 6, 7]",3,True,CHN,aromatic
7913,2-methylbicyclo[2.2.1]hept-5-ene-2-carboxylic acid,CC1(CC2CC1C=C2)C(=O)O,563.51,9,"[1, 6, 8]",3,True,CHO,alkene
7914,2-(2-bicyclo[2.2.1]heptanyl)acetic acid,C1CC2CC1CC2CC(=O)O,564.11,9,"[1, 6, 8]",3,True,CHO,alcohol
7915,methyl 3-oxocycloheptene-1-carboxylate,COC(=O)C1=CC(=O)CCCC1,564.19,9,"[1, 6, 8]",3,True,CHO,ester
7916,4-methylpentan-2-yl 2-cyanoacetate,CC(C)CC(C)OC(=O)CC#N,564.94,9,"[1, 6, 7, 8]",4,True,CHON,ester
7917,2-[2-(2-propoxyethoxy)ethoxy]ethanol,CCCOCCOCCOCCO,564.96,9,"[1, 6, 8]",3,True,CHO,ester
7918,"2,6,6-trimethylcyclohex-2-ene-1,4-dione",CC1=CC(=O)CC(C1=O)(C)C,565.09,9,"[1, 6, 8]",3,True,CHO,alkene
7919,"bicyclo[3.3.1]nona-3,7-diene-2,6-dione",C1C2C=CC(=O)C1C=CC2=O,565.77,9,"[1, 6, 8]",3,True,CHO,alkene
7920,ethyl 6-cyanohexanoate,CCOC(=O)CCCCCC#N,565.82,9,"[1, 6, 7, 8]",4,True,CHON,ester
7921,"3-(2,3-dihydro-1H-pyrrol-5-yl)pyridine",C1CNC(=C1)C2=CN=CC=C2,566.15,9,"[1, 6, 7]",3,True,CHN,alkene
7922,"bicyclo[3.2.2]non-8-ene-6,7-dione",C1CC2C=CC(C1)C(=O)C2=O,566.61,9,"[1, 6, 8]",3,True,CHO,alkene
7923,"3-acetylheptane-2,6-dione",CC(=O)CCC(C(=O)C)C(=O)C,566.69,9,"[1, 6, 8]",3,True,CHO,ketone
7924,1-(cyclohexylamino)propan-2-ol,CC(CNC1CCCCC1)O,566.98,9,"[1, 6, 7, 8]",4,True,CHON,alcohol
7925,"bicyclo[3.3.1]nonane-2,6-dione",C1CC(=O)C2CCC(=O)C1C2,567.45,9,"[1, 6, 8]",3,True,CHO,ketone
7926,"bicyclo[3.2.2]nonane-2,4-dione",C1CC2CCC1C(=O)CC2=O,567.45,9,"[1, 6, 8]",3,True,CHO,ketone
7927,1-methyl-9-azabicyclo[3.3.1]nonan-3-ol,CC12CCCC(N1)CC(C2)O,568.11,9,"[1, 6, 7, 8]",4,True,CHON,alcohol
7928,"2,3,5-trimethylbenzene-1,4-diol",CC1=CC(=C(C(=C1O)C)C)O,568.15,9,"[1, 6, 8]",3,True,CHO,aromatic
7929,ethyl 3-hydroxybenzoate,CCOC(=O)C1=CC(=CC=C1)O,568.2,9,"[1, 6, 8]",3,True,CHO,ester
7930,"1,2,3,3a,4,5,6,6a-octahydropentalene-1-carboxylic acid",C1CC2CCC(C2C1)C(=O)O,568.38,9,"[1, 6, 8]",3,True,CHO,alcohol
7931,"1-pentylpyrrolidine-2,5-dione",CCCCCN1C(=O)CCC1=O,569.28,9,"[1, 6, 7, 8]",4,True,CHON,amide
7932,ethyl 2-aminocyclohexene-1-carboxylate,CCOC(=O)C1=C(CCCC1)N,569.61,9,"[1, 6, 7, 8]",4,True,CHON,ester
7933,diethyl 2-formylbutanedioate,CCOC(=O)CC(C=O)C(=O)OCC,570.18,9,"[1, 6, 8]",3,True,CHO,ester
7934,ethyl 4-hydroxycyclohexane-1-carboxylate,CCOC(=O)C1CCC(CC1)O,570.8,9,"[1, 6, 8]",3,True,CHO,ester
7935,methyl 4-acetyl-5-oxohexanoate,CC(=O)C(CCC(=O)OC)C(=O)C,571.04,9,"[1, 6, 8]",3,True,CHO,ester
7936,ethyl 3-acetyl-4-oxopentanoate,CCOC(=O)CC(C(=O)C)C(=O)C,571.04,9,"[1, 6, 8]",3,True,CHO,ester
7937,1-(1-hydroxycyclohexyl)propan-2-one,CC(=O)CC1(CCCCC1)O,571.36,9,"[1, 6, 8]",3,True,CHO,alcohol
7938,bicyclo[2.2.2]oct-2-ene-1-carboxylic acid,C1CC2(CCC1C=C2)C(=O)O,572.45,9,"[1, 6, 8]",3,True,CHO,alkene
7939,ethyl 2-acetyloxy-2-methyl-3-oxobutanoate,CCOC(=O)C(C)(C(=O)C)OC(=O)C,572.6,9,"[1, 6, 8]",3,True,CHO,ester
7940,"3-hydroxy-2,2,4,4-tetramethyl-5-methylideneimidazolidine-1-carbaldehyde",CC1(C(=C)N(C(N1O)(C)C)C=O)C,572.95,9,"[1, 6, 7, 8]",4,True,CHON,amide
7941,"1,5-dimethylbenzimidazole",CC1=CC2=C(C=C1)N(C=N2)C,573.15,9,"[1, 6, 7]",3,True,CHN,aromatic
7942,bicyclo[2.2.2]octane-1-carboxylic acid,C1CC2(CCC1CC2)C(=O)O,573.29,9,"[1, 6, 8]",3,True,CHO,alcohol
7943,N-(4-hydroxybutyl)-N-pentylnitrous amide,CCCCCN(CCCCO)N=O,573.54,9,"[1, 6, 7, 8]",4,True,CHON,alcohol
7944,"1-(4-hydroxy-1,4-dimethylpiperidin-3-yl)ethanone",CC(=O)C1CN(CCC1(C)O)C,574.86,9,"[1, 6, 7, 8]",4,True,CHON,ketone
7945,3-(1-hydroxyhexyl)oxirane-2-carbaldehyde,CCCCCC(C1C(O1)C=O)O,574.94,9,"[1, 6, 8]",3,True,CHO,ester
7946,"2-(2-hydroxyethoxy)ethyl 2,2-dimethylpropanoate",CC(C)(C)C(=O)OCCOCCO,575.11,9,"[1, 6, 8]",3,True,CHO,ester
7947,"tricyclo[5.2.0.03,5]non-1(7)-ene-2,6-dione",C1CC2=C1C(=O)C3CC3C2=O,575.17,9,"[1, 6, 8]",3,True,CHO,alkene
7948,2-hydroxyethyl cyclohexanecarboxylate,C1CCC(CC1)C(=O)OCCO,575.47,9,"[1, 6, 8]",3,True,CHO,ester
7949,"trimethyl cyclopropane-1,2,3-tricarboxylate",COC(=O)C1C(C1C(=O)OC)C(=O)OC,577.58,9,"[1, 6, 8]",3,True,CHO,ester
7950,"trimethyl propane-1,1,3-tricarboxylate",COC(=O)CCC(C(=O)OC)C(=O)OC,579.74,9,"[1, 6, 8]",3,True,CHO,ester
7951,diethyl 2-acetyloxypropanedioate,CCOC(=O)C(C(=O)OCC)OC(=O)C,579.74,9,"[1, 6, 8]",3,True,CHO,ester
7952,"1-(7-acetyl-1,3,5,7-tetrazabicyclo[3.3.1]nonan-3-yl)ethanone",CC(=O)N1CN2CN(C1)CN(C2)C(=O)C,581.57,9,"[1, 6, 7, 8]",4,True,CHON,amide
7953,1-(3-aminopropyl)azepan-2-one,C1CCC(=O)N(CC1)CCCN,582.53,9,"[1, 6, 7, 8]",4,True,CHON,amide
7954,"2,6-dimethylheptane-2,6-diol",CC(C)(CCCC(C)(C)O)O,583.42,9,"[1, 6, 8]",3,True,CHO,alcohol
7955,"trimethyl (Z)-prop-1-ene-1,2,3-tricarboxylate",COC(=O)C/C(=C/C(=O)OC)/C(=O)OC,584.22,9,"[1, 6, 8]",3,True,CHO,ester
7956,cyclohexyl 2-cyanoacetate,C1CCC(CC1)OC(=O)CC#N,585.37,9,"[1, 6, 7, 8]",4,True,CHON,ester
7957,"1,3-dibutyl-1-nitrosourea",CCCCNC(=O)N(CCCC)N=O,585.4,9,"[1, 6, 7, 8]",4,True,CHON,amide
7958,(1-cyanocyclohexyl) acetate,CC(=O)OC1(CCCCC1)C#N,585.61,9,"[1, 6, 7, 8]",4,True,CHON,ester
7959,1-(4-hydroxy-2-methylphenyl)ethanone,CC1=C(C=CC(=C1)O)C(=O)C,586.15,9,"[1, 6, 8]",3,True,CHO,ketone
7960,"2,2,4-trimethylhexane-1,6-diol",CC(CCO)CC(C)(C)CO,586.21,9,"[1, 6, 8]",3,True,CHO,alcohol
7961,"2,4,4-trimethylhexane-1,6-diol",CC(CC(C)(C)CCO)CO,586.21,9,"[1, 6, 8]",3,True,CHO,alcohol
7962,4-hydroxy-3-methyl-2-prop-2-enylcyclopent-2-en-1-one,CC1=C(C(=O)CC1O)CC=C,586.6,9,"[1, 6, 8]",3,True,CHO,alkene
7963,"2,2,5,5-tetramethylpyrrolidine-3-carboxamide",CC1(CC(C(N1)(C)C)C(=O)N)C,586.89,9,"[1, 6, 7, 8]",4,True,CHON,amide
7964,"5,5-dipropyl-1,3-oxazolidine-2,4-dione",CCCC1(C(=O)NC(=O)O1)CCC,587.09,9,"[1, 6, 7, 8]",4,True,CHON,ester
7965,diethyl 2-isocyanatobutanedioate,CCOC(=O)CC(C(=O)OCC)N=C=O,588.19,9,"[1, 6, 7, 8]",4,True,CHON,ester
7966,"nonane-4,5-diol",CCCCC(C(CCC)O)O,589.0,9,"[1, 6, 8]",3,True,CHO,alcohol
7967,"1-hydroxy-2,2,6,6-tetramethylpiperidin-4-one",CC1(CC(=O)CC(N1O)(C)C)C,589.05,9,"[1, 6, 7, 8]",4,True,CHON,ketone
7968,"nonane-1,3-diol",CCCCCCC(CCO)O,589.44,9,"[1, 6, 8]",3,True,CHO,alcohol
7969,"nonane-1,2-diol",CCCCCCCC(CO)O,589.44,9,"[1, 6, 8]",3,True,CHO,alcohol
7970,"nonane-1,9-diol",C(CCCCO)CCCCO,589.88,9,"[1, 6, 8]",3,True,CHO,alcohol
7971,"4,5-dimethoxy-1,3-bis(methoxymethyl)imidazolidin-2-one",COCN1C(C(N(C1=O)COC)OC)OC,589.97,9,"[1, 6, 7, 8]",4,True,CHON,ester
7972,2-piperazin-1-yl-N-propan-2-ylacetamide,CC(C)NC(=O)CN1CCNCC1,590.06,9,"[1, 6, 7, 8]",4,True,CHON,amide
7973,"3-ethyl-4-imino-5-methylcyclohexa-2,5-dien-1-one",CCC1=CC(=O)C=C(C1=N)C,592.78,9,"[1, 6, 7, 8]",4,True,CHON,alkene
7974,"2-methyl-4,5,6,7-tetrahydroisoindole-1,3-dione",CN1C(=O)C2=C(C1=O)CCCC2,594.08,9,"[1, 6, 7, 8]",4,True,CHON,amide
7975,3-(2-oxocyclohexyl)propanenitrile,C1CCC(=O)C(C1)CCC#N,594.97,9,"[1, 6, 7, 8]",4,True,CHON,ketone
7976,"2,2,5,5-tetramethyl-1H-pyrrole-3-carboxamide",CC1(C=C(C(N1)(C)C)C(=O)N)C,595.7,9,"[1, 6, 7, 8]",4,True,CHON,amide
7977,3-(2-butoxyethoxy)propanoic acid,CCCCOCCOCCC(=O)O,595.87,9,"[1, 6, 8]",3,True,CHO,carboxylic_acid
7978,[3-(hydroxymethyl)-2-bicyclo[2.2.1]hept-5-enyl]methanol,C1C2C=CC1C(C2CO)CO,597.45,9,"[1, 6, 8]",3,True,CHO,alkene
7979,4-[acetyloxymethyl(nitroso)amino]butyl acetate,CC(=O)OCCCCN(COC(=O)C)N=O,597.8,9,"[1, 6, 7, 8]",4,True,CHON,ester
7980,"1,3,6,9,12-pentaoxacyclotetradecane",C1COCCOCOCCOCCO1,598.65,9,"[1, 6, 8]",3,True,CHO,ester
7981,"5,5-dimethyl-3-oxocyclohexene-1-carbonitrile",CC1(CC(=CC(=O)C1)C#N)C,599.35,9,"[1, 6, 7, 8]",4,True,CHON,alkene
7982,"3,3-di(propan-2-yl)azetidine-2,4-dione",CC(C)C1(C(=O)NC1=O)C(C)C,600.08,9,"[1, 6, 7, 8]",4,True,CHON,amide
7983,"3-[di(propan-2-yl)amino]propane-1,2-diol",CC(C)N(CC(CO)O)C(C)C,601.0,9,"[1, 6, 7, 8]",4,True,CHON,alcohol
7984,"1,5,9-triazacyclododecane",C1CNCCCNCCCNC1,601.01,9,"[1, 6, 7]",3,True,CHN,amine
7985,N-(2-hydroxypropyl)hexanamide,CCCCCC(=O)NCC(C)O,601.3,9,"[1, 6, 7, 8]",4,True,CHON,alcohol
7986,"4,4-dimethyl-6-oxoheptanoic acid",CC(=O)CC(C)(C)CCC(=O)O,601.67,9,"[1, 6, 8]",3,True,CHO,carboxylic_acid
7987,N-(3-hydroxypropyl)hexanamide,CCCCCC(=O)NCCCO,601.74,9,"[1, 6, 7, 8]",4,True,CHON,alcohol
7988,"3-(dipropylamino)propane-1,2-diol",CCCN(CCC)CC(CO)O,601.88,9,"[1, 6, 7, 8]",4,True,CHON,alcohol
7989,[2-(hydroxymethyl)-2-bicyclo[2.2.1]hept-5-enyl]methanol,C1C2CC(C1C=C2)(CO)CO,602.36,9,"[1, 6, 8]",3,True,CHO,alkene
7990,[1-(hydroxymethyl)-6-methylcyclohex-3-en-1-yl]methanol,CC1CC=CCC1(CO)CO,604.16,9,"[1, 6, 8]",3,True,CHO,alkene
7991,"2-ethyl-2-(prop-2-enoxymethyl)propane-1,3-diol",CCC(CO)(CO)COCC=C,605.75,9,"[1, 6, 8]",3,True,CHO,ester
7992,4-butoxy-2-methylidene-4-oxobutanoic acid,CCCCOC(=O)CC(=C)C(=O)O,605.81,9,"[1, 6, 8]",3,True,CHO,carboxylic_acid
7993,2-methyl-N-[(2-methylprop-2-enoylamino)methyl]prop-2-enamide,CC(=C)C(=O)NCNC(=O)C(=C)C,606.72,9,"[1, 6, 7, 8]",4,True,CHON,alkene
7994,"3,3-diethyl-1H-pyridine-2,4-dione",CCC1(C(=O)C=CNC1=O)CC,608.66,9,"[1, 6, 7, 8]",4,True,CHON,amide
7995,"4-azatricyclo[5.2.1.02,6]dec-8-ene-3,5-dione",C1C2C=CC1C3C2C(=O)NC3=O,608.69,9,"[1, 6, 7, 8]",4,True,CHON,alkene
7996,7-ethoxy-7-oxoheptanoic acid,CCOC(=O)CCCCCC(=O)O,609.25,9,"[1, 6, 8]",3,True,CHO,carboxylic_acid
7997,"1,3-bis(oxiran-2-ylmethoxy)propan-2-ol",C1C(O1)COCC(COCC2CO2)O,609.48,9,"[1, 6, 8]",3,True,CHO,ester
7998,"3,3-diethylpiperidine-2,4-dione",CCC1(C(=O)CCNC1=O)CC,609.5,9,"[1, 6, 7, 8]",4,True,CHON,amide
7999,dimethyl 2-hydroxy-2-propan-2-ylbutanedioate,CC(C)C(CC(=O)OC)(C(=O)OC)O,610.47,9,"[1, 6, 8]",3,True,CHO,ester
8000,"2-methyl-3a,4,7,7a-tetrahydroisoindole-1,3-dione",CN1C(=O)C2CC=CCC2C1=O,610.9,9,"[1, 6, 7, 8]",4,True,CHON,amide
8001,"3-hexoxypropane-1,2-diol",CCCCCCOCC(CO)O,611.86,9,"[1, 6, 8]",3,True,CHO,ester
8002,"2-acetamido-N,4-dimethylpentanamide",CC(C)CC(C(=O)NC)NC(=O)C,612.72,9,"[1, 6, 7, 8]",4,True,CHON,amide
8003,diethyl 3-hydroxypentanedioate,CCOC(=O)CC(CC(=O)OCC)O,613.7,9,"[1, 6, 8]",3,True,CHO,ester
8004,2-[3-(dimethylamino)propyl-(2-hydroxyethyl)amino]ethanol,CN(C)CCCN(CCO)CCO,614.76,9,"[1, 6, 7, 8]",4,True,CHON,alcohol
8005,N-[3-[3-formamidopropyl(methyl)amino]propyl]formamide,CN(CCCNC=O)CCCNC=O,615.62,9,"[1, 6, 7, 8]",4,True,CHON,amide
8006,3-(4-hydroxy-4-methylpentan-2-yl)oxypropanenitrile,CC(CC(C)(C)O)OCCC#N,618.53,9,"[1, 6, 7, 8]",4,True,CHON,ester
8007,"4,5-bis(prop-2-enoxy)imidazolidin-2-one",C=CCOC1C(NC(=O)N1)OCC=C,619.25,9,"[1, 6, 7, 8]",4,True,CHON,ester
8008,"4,4,5,5-tetramethylcyclopentane-1,2,3-trione",CC1(C(=O)C(=O)C(=O)C1(C)C)C,620.07,9,"[1, 6, 8]",3,True,CHO,ketone
8009,"4-(aminomethyl)octane-1,8-diamine",C(CCN)CC(CCCN)CN,622.67,9,"[1, 6, 7]",3,True,CHN,amine
8010,"2,3-dimethoxy-5-methylcyclohexa-2,5-diene-1,4-dione",CC1=CC(=O)C(=C(C1=O)OC)OC,623.48,9,"[1, 6, 8]",3,True,CHO,ester
8011,9-aminononanoic acid,C(CCCCN)CCCC(=O)O,623.56,9,"[1, 6, 7, 8]",4,True,CHON,carboxylic_acid
8012,"8-azaspiro[4.5]decane-7,9-dione",C1CCC2(C1)CC(=O)NC(=O)C2,625.18,9,"[1, 6, 7, 8]",4,True,CHON,amide
8013,diethyl 2-acetamidopropanedioate,CCOC(=O)C(C(=O)OCC)NC(=O)C,625.56,9,"[1, 6, 7, 8]",4,True,CHON,ester
8014,"4,5-dipropoxyimidazolidin-2-one",CCCOC1C(NC(=O)N1)OCCC,625.89,9,"[1, 6, 7, 8]",4,True,CHON,ester
8015,1-(2-piperazin-1-ylethylamino)propan-2-ol,CC(CNCCN1CCNCC1)O,628.37,9,"[1, 6, 7, 8]",4,True,CHON,alcohol
8016,N-carbamoyl-2-propan-2-ylpent-4-enamide,CC(C)C(CC=C)C(=O)NC(=O)N,631.76,9,"[1, 6, 7, 8]",4,True,CHON,alkene
8017,1-[2-(2-hydroxypropoxy)propoxy]propan-2-ol,CC(COCC(C)OCC(C)O)O,633.4,9,"[1, 6, 8]",3,True,CHO,ester
8018,"bicyclo[3.2.2]nonane-2,3,4-trione",C1CC2CCC1C(=O)C(=O)C2=O,635.27,9,"[1, 6, 8]",3,True,CHO,ketone
8019,"bicyclo[2.2.1]hepta-2,5-diene-2,3-dicarbonitrile",C1C2C=CC1C(=C2C#N)C#N,635.71,9,"[1, 6, 7]",3,True,CHN,alkene
8020,"2,6,10,13-tetrazatricyclo[7.3.1.05,13]trideca-1,3,5,7,9,11-hexaene",C1=CN=C2C=CN=C3N2C1=NC=C3,636.0,9,"[1, 6, 7]",3,True,CHN,alkene
8021,"2,4,8,13-tetrazatricyclo[7.3.1.05,13]trideca-1(12),2,4,6,8,10-hexaene",C1=CC2=NC=CC3=NC=NC(=C1)N23,636.0,9,"[1, 6, 7]",3,True,CHN,alkene
8022,"2,4,6,13-tetrazatricyclo[7.3.1.05,13]trideca-1,3,5,7,9,11-hexaene",C1=CC2=NC=NC3=NC=CC(=C1)N23,636.0,9,"[1, 6, 7]",3,True,CHN,alkene
8023,"2,6-dihydroxy-2,6-dimethylheptan-4-one",CC(C)(CC(=O)CC(C)(C)O)O,637.29,9,"[1, 6, 8]",3,True,CHO,alcohol
8024,3-(2-piperazin-1-ylethylamino)propanenitrile,C1CN(CCN1)CCNCCC#N,638.71,9,"[1, 6, 7]",3,True,CHN,amine
8025,2-cyclohexylidenepropanedinitrile,C1CCC(=C(C#N)C#N)CC1,640.42,9,"[1, 6, 7]",3,True,CHN,alkene
8026,"N-(2,2,6,6-tetramethylpiperidin-4-ylidene)hydroxylamine",CC1(CC(=NO)CC(N1)(C)C)C,640.77,9,"[1, 6, 7, 8]",4,True,CHON,amine