,Name,SMILES,Tb,C Atom,Atom,Count Unique Atom,Pass Screen,Atom2,Func. Group
7196,dispiro[2.0.24.33]nonane,C1CC2(CC2)C3(C1)CC3,430.89,9,"[1, 6]",2,True,CH,alkane
7197,bicyclo[3.3.1]non-2-ene,C1CC2CC=CC(C1)C2,430.97,9,"[1, 6]",2,True,CH,alkene
7198,bicyclo[3.2.2]non-6-ene,C1CC2CCC(C1)C=C2,430.97,9,"[1, 6]",2,True,CH,alkene
7199,bicyclo[4.2.1]non-3-ene,C1CC2CC=CCC1C2,430.97,9,"[1, 6]",2,True,CH,alkene
7200,bicyclo[3.2.2]non-2-ene,C1CC2CCC1CC=C2,430.97,9,"[1, 6]",2,True,CH,alkene
7201,"3,5-dimethyl-2,3,5,6,7,8-hexahydro-1H-pyrrolizine",CC1CCC2N1C(CC2)C,431.04,9,"[1, 6, 7]",3,True,CHN,amine
7202,"1,1-dipropoxypropane",CCCOC(CC)OCCC,431.65,9,"[1, 6, 8]",3,True,CHO,ester
7203,2-methylbicyclo[2.2.2]oct-2-ene,CC1=CC2CCC1CC2,431.68,9,"[1, 6]",2,True,CH,alkene
7204,bicyclo[3.2.2]nonane,C1CC2CCC(C1)CC2,431.81,9,"[1, 6]",2,True,CH,alkane
7205,bicyclo[6.1.0]nonane,C1CCCC2CC2CC1,431.81,9,"[1, 6]",2,True,CH,alkane
7206,N-butyl-N-methylbutan-1-amine,CCCCN(C)CCCC,432.15,9,"[1, 6, 7]",3,True,CHN,amine
7207,(1Z)-3-methylcyclooctene,CC/1CCCCC/C=C1,432.77,9,"[1, 6]",2,True,CH,alkene
7208,prop-2-enylidenecyclohexane,C=CC=C1CCCCC1,433.06,9,"[1, 6]",2,True,CH,alkene
7209,"2,2,5-trimethylhexan-3-ol",CC(C)CC(C(C)(C)C)O,433.15,9,"[1, 6, 8]",3,True,CHO,alcohol
7210,2-methyl-1H-indol-5-amine,CC1=CC2=C(N1)C=CC(=C2)N,433.15,9,"[1, 6, 7]",3,True,CHN,aromatic
7211,"spiro[4.4]nona-1,3,6,8-tetraene",C1=CC2(C=C1)C=CC=C2,433.36,9,"[1, 6]",2,True,CH,alkene
7212,methylcyclooctane,CC1CCCCCCC1,433.61,9,"[1, 6]",2,True,CH,alkane
7213,1-(2-methylpropyl)piperidine,CC(C)CN1CCCCC1,433.65,9,"[1, 6, 7]",3,True,CHN,amine
7214,prop-1-ynylcyclohexane,CC#CC1CCCCC1,434.07,9,"[1, 6]",2,True,CH,alkyne
7215,"spiro[4.4]nona-1,3,8-triene",C1CC2(C=C1)C=CC=C2,434.2,9,"[1, 6]",2,True,CH,alkene
7216,"spiro[4.4]nona-1,3,7-triene",C1C=CCC12C=CC=C2,434.2,9,"[1, 6]",2,True,CH,alkene
7217,N-methyl-N-(4-methylphenyl)formamide,CC1=CC=C(C=C1)N(C)C=O,434.65,9,"[1, 6, 7, 8]",4,True,CHON,amide
7218,8-methyl-3-methylidene-8-azabicyclo[3.2.1]octane,CN1C2CCC1CC(=C)C2,434.87,9,"[1, 6, 7]",3,True,CHN,alkene
7219,"spiro[4.4]nona-1,3-diene",C1CCC2(C1)C=CC=C2,435.04,9,"[1, 6]",2,True,CH,alkene
7220,"2-phenyl-4,5-dihydro-1H-imidazole",C1CN=C(N1)C2=CC=CC=C2,435.15,9,"[1, 6, 7]",3,True,CHN,aromatic
7221,"6-ethenyl-3-oxatricyclo[3.2.1.02,4]octane",C=CC1CC2CC1C3C2O3,435.76,9,"[1, 6, 8]",3,True,CHO,ester
7222,spiro[4.4]non-3-ene,C1CCC2(C1)CCC=C2,435.88,9,"[1, 6]",2,True,CH,alkene
7223,4-methyl-3-propan-2-ylpent-1-yn-3-ol,CC(C)C(C#C)(C(C)C)O,436.15,9,"[1, 6, 8]",3,True,CHO,alkyne
7224,"3,3-dimethylbicyclo[3.2.0]hepta-1,4-diene",CC1(C=C2CCC2=C1)C,436.46,9,"[1, 6]",2,True,CH,alkene
7225,"7,8-dimethyl-7,8-diazatricyclo[4.2.1.02,5]non-3-ene",CN1C2CC(N1C)C3C2C=C3,436.57,9,"[1, 6, 7]",3,True,CHN,alkene
7226,"2,2,4,4-tetramethylcyclopentan-1-one",CC1(CC(=O)C(C1)(C)C)C,436.65,9,"[1, 6, 8]",3,True,CHO,ketone
7227,butan-2-yl 3-methylbutanoate,CCC(C)OC(=O)CC(C)C,436.9,9,"[1, 6, 8]",3,True,CHO,ester
7228,2-butyl-5-methylfuran,CCCCC1=CC=C(O1)C,437.15,9,"[1, 6, 8]",3,True,CHO,aromatic
7229,"(E)-1,1-diethoxypent-2-ene",CC/C=C/C(OCC)OCC,437.15,9,"[1, 6, 8]",3,True,CHO,ester
7230,4-ethenyl-2-methoxyphenol,COC1=C(C=CC(=C1)C=C)O,437.15,9,"[1, 6, 8]",3,True,CHO,ester
7231,1-[(E)-pent-2-en-3-yl]pyrrolidine,CC/C(=C\C)/N1CCCC1,437.8,9,"[1, 6, 7]",3,True,CHN,alkene
7232,"1-azatricyclo[3.3.1.13,7]decane",C1C2CC3CC1CN(C2)C3,438.18,9,"[1, 6, 7]",3,True,CHN,amine
7233,"3,4,4-trimethylhexan-3-ol",CCC(C)(C)C(C)(CC)O,438.65,9,"[1, 6, 8]",3,True,CHO,alcohol
7234,1-ethenoxyheptane,CCCCCCCOC=C,438.9,9,"[1, 6, 8]",3,True,CHO,ester
7235,prop-2-enyl 2-ethylbutanoate,CCC(CC)C(=O)OCC=C,439.15,9,"[1, 6, 8]",3,True,CHO,ester
7236,"5,5-dimethyl-2-propan-2-yl-1,3-dioxane",CC(C)C1OCC(CO1)(C)C,439.15,9,"[1, 6, 8]",3,True,CHO,ester
7237,3-(2-methylpiperidin-1-yl)propan-1-amine,CC1CCCCN1CCCN,439.65,9,"[1, 6, 7]",3,True,CHN,amine
7238,"2-ethyl-2,4-dimethylpentanal",CCC(C)(CC(C)C)C=O,439.65,9,"[1, 6, 8]",3,True,CHO,aldehyde
7239,methylcyclooctatetraene,CC1=CC=CC=CC=C1,439.9,9,"[1, 6]",2,True,CH,alkene
7240,9-methyl-9-azabicyclo[3.3.1]nonane,CN1C2CCCC1CCC2,439.98,9,"[1, 6, 7]",3,True,CHN,amine
7241,"(1Z,4Z,7Z)-cyclonona-1,4,7-triene",C/1/C=C\C/C=C\C/C=C1,440.03,9,"[1, 6]",2,True,CH,alkene
7242,5-(1-ethoxyethoxy)pent-1-yne,CCOC(C)OCCCC#C,440.04,9,"[1, 6, 8]",3,True,CHO,ester
7243,"methyl 2,4-dimethyl-6-oxopyran-3-carboxylate",CC1=CC(=O)OC(=C1C(=O)OC)C,440.15,9,"[1, 6, 8]",3,True,CHO,ester
7244,"2,2-bis(prop-2-enoxy)propane",CC(C)(OCC=C)OCC=C,440.49,9,"[1, 6, 8]",3,True,CHO,ester
7245,bicyclo[3.3.1]non-1-ene,C1CC2CCC=C(C1)C2,440.62,9,"[1, 6]",2,True,CH,alkene
7246,bicyclo[4.2.1]non-1(8)-ene,C1CCC2=CCC(C1)C2,440.62,9,"[1, 6]",2,True,CH,alkene
7247,bicyclo[4.2.1]non-1-ene,C1CC=C2CCC(C1)C2,440.62,9,"[1, 6]",2,True,CH,alkene
7248,4-ethyl-1-azabicyclo[2.2.2]octane,CCC12CCN(CC1)CC2,440.62,9,"[1, 6, 7]",3,True,CHN,amine
7249,"1,1-diethoxy-3-methylbutane",CCOC(CC(C)C)OCC,440.65,9,"[1, 6, 8]",3,True,CHO,ester
7250,ethylidenecycloheptane,CC=C1CCCCCC1,440.65,9,"[1, 6]",2,True,CH,alkene
7251,"2,5-bis(ethenyl)oxane",C=CC1CCC(OC1)C=C,440.71,9,"[1, 6, 8]",3,True,CHO,ester
7252,"(1Z,4Z)-cyclonona-1,4-diene",C1C/C=C\C/C=C\CC1,440.87,9,"[1, 6]",2,True,CH,alkene
7253,"(1Z,5Z)-cyclonona-1,5-diene",C1C/C=C\CC/C=C\C1,440.87,9,"[1, 6]",2,True,CH,alkene
7254,propan-2-yl hexanoate,CCCCCC(=O)OC(C)C,441.15,9,"[1, 6, 8]",3,True,CHO,ester
7255,"1,4-diethyl-2-methylpiperazine",CCN1CCN(C(C1)C)CC,441.41,9,"[1, 6, 7]",3,True,CHN,amine
7256,1-(3-aminophenyl)propan-1-one,CCC(=O)C1=CC(=CC=C1)N,441.65,9,"[1, 6, 7, 8]",4,True,CHON,ketone
7257,cyclononene,C1CCCC=CCCC1,441.71,9,"[1, 6]",2,True,CH,alkene
7258,cyclononene,C1CCC/C=C/CCC1,441.71,9,"[1, 6]",2,True,CH,alkene
7259,1-(2-methylprop-1-enyl)piperidine,CC(=CN1CCCCC1)C,441.95,9,"[1, 6, 7]",3,True,CHN,alkene
7260,1-[(E)-but-2-enyl]piperidine,C/C=C/CN1CCCCC1,442.07,9,"[1, 6, 7]",3,True,CHN,alkene
7261,1-[(E)-but-1-enyl]piperidine,CC/C=C/N1CCCCC1,442.07,9,"[1, 6, 7]",3,True,CHN,alkene
7262,"2,2,4-trimethylhexan-3-ol",CCC(C)C(C(C)(C)C)O,442.15,9,"[1, 6, 8]",3,True,CHO,alcohol
7263,1-ethynyl-4-methylbenzene,CC1=CC=C(C=C1)C#C,442.2,9,"[1, 6]",2,True,CH,alkyne
7264,(1Z)-1-methylcyclooctene,C/C/1=C/CCCCCC1,442.42,9,"[1, 6]",2,True,CH,alkene
7265,(1E)-1-methylcyclooctene,C/C/1=C\CCCCCC1,442.42,9,"[1, 6]",2,True,CH,alkene
7266,1-methyl-4-propan-2-ylpiperidine,CC(C)C1CCN(CC1)C,442.65,9,"[1, 6, 7]",3,True,CHN,amine
7267,(4-formylphenyl) acetate,CC(=O)OC1=CC=C(C=C1)C=O,443.15,9,"[1, 6, 8]",3,True,CHO,ester
7268,"1,2,3-trimethylbenzene",CC1=C(C(=CC=C1)C)C,443.55,9,"[1, 6]",2,True,CH,aromatic
7269,"2,2-dimethoxy-4,4-dimethylpentane",CC(C)(C)CC(C)(OC)OC,443.9,9,"[1, 6, 8]",3,True,CHO,ester
7270,2-methyloctan-3-one,CCCCCC(=O)C(C)C,444.15,9,"[1, 6, 8]",3,True,CHO,ketone
7271,1-methoxyoctane,CCCCCCCCOC,444.15,9,"[1, 6, 8]",3,True,CHO,ester
7272,methyl 2-propylpentanoate,CCCC(CCC)C(=O)OC,444.15,9,"[1, 6, 8]",3,True,CHO,ester
7273,heptan-4-yl acetate,CCCC(CCC)OC(=O)C,444.15,9,"[1, 6, 8]",3,True,CHO,ester
7274,5-methoxybicyclo[2.2.2]oct-2-ene,COC1CC2CCC1C=C2,444.45,9,"[1, 6, 8]",3,True,CHO,ester
7275,"5,5-dimethyl-2-propyl-1,3-dioxane",CCCC1OCC(CO1)(C)C,444.65,9,"[1, 6, 8]",3,True,CHO,ester
7276,(3-methylphenyl) N-methylcarbamate,CC1=CC(=CC=C1)OC(=O)NC,444.65,9,"[1, 6, 7, 8]",4,True,CHON,ester
7277,"2,4,4-trimethylhexan-3-ol",CCC(C)(C)C(C(C)C)O,444.86543,9,"[1, 6, 8]",3,True,CHO,alcohol
7278,"N,N-dimethylheptan-1-amine",CCCCCCCN(C)C,445.15,9,"[1, 6, 7]",3,True,CHN,amine
7279,heptan-2-yl acetate,CCCCCC(C)OC(=O)C,445.15,9,"[1, 6, 8]",3,True,CHO,ester
7280,2-methoxybicyclo[2.2.2]octane,COC1CC2CCC1CC2,445.29,9,"[1, 6, 8]",3,True,CHO,ester
7281,"3,3,4,4-tetramethylpentan-2-one",CC(=O)C(C)(C)C(C)(C)C,445.89728,9,"[1, 6, 8]",3,True,CHO,ketone
7282,1-ethylazocane,CCN1CCCCCCC1,446.45,9,"[1, 6, 7]",3,True,CHN,amine
7283,1-ethenoxy-3-methylbenzene,CC1=CC(=CC=C1)OC=C,446.9,9,"[1, 6, 8]",3,True,CHO,ester
7284,1-methoxyethylcyclohexane,CC(C1CCCCC1)OC,447.05,9,"[1, 6, 8]",3,True,CHO,ester
7285,3-methyloctan-4-one,CCCCC(=O)C(C)CC,447.15,9,"[1, 6, 8]",3,True,CHO,ketone
7286,"3-ethyl-2,2-dimethylpentan-3-ol",CCC(CC)(C(C)(C)C)O,447.15,9,"[1, 6, 8]",3,True,CHO,alcohol
7287,"2,2-dimethylheptan-4-ol",CCCC(CC(C)(C)C)O,447.15,9,"[1, 6, 8]",3,True,CHO,alcohol
7288,"2,2,3,4-tetramethylpentan-3-ol",CC(C)C(C)(C(C)(C)C)O,447.35,9,"[1, 6, 8]",3,True,CHO,alcohol
7289,3-ethylheptan-4-one,CCCC(=O)C(CC)CC,448.15,9,"[1, 6, 8]",3,True,CHO,ketone
7290,5-methyloctan-4-one,CCCC(C)C(=O)CCC,448.15,9,"[1, 6, 8]",3,True,CHO,ketone
7291,"3,7-dimethyl-3,7-diazabicyclo[3.3.1]nonane",CN1CC2CC(C1)CN(C2)C,448.15,9,"[1, 6, 7]",3,True,CHN,amine
7292,"3-(diethylamino)-2,2-dimethylpropanal",CCN(CC)CC(C)(C)C=O,449.15,9,"[1, 6, 7, 8]",4,True,CHON,aldehyde
7293,1-propan-2-ylcyclohexan-1-ol,CC(C)C1(CCCCC1)O,449.15,9,"[1, 6, 8]",3,True,CHO,alcohol
7294,"N-tert-butyl-2,2-dimethylpropan-1-amine",CC(C)(C)CNC(C)(C)C,449.23,9,"[1, 6, 7]",3,True,CHN,amine
7295,1-methoxybicyclo[2.2.2]oct-2-ene,COC12CCC(CC1)C=C2,449.36,9,"[1, 6, 8]",3,True,CHO,ester
7296,2-(butan-2-yloxymethoxy)butane,CCC(C)OCOC(C)CC,449.48,9,"[1, 6, 8]",3,True,CHO,ester
7297,"7,7-dimethylbicyclo[3.2.0]hept-2-en-6-one",CC1(C2C=CCC2C1=O)C,449.65,9,"[1, 6, 8]",3,True,CHO,alkene
7298,2-methylpropyl (Z)-2-methylbut-2-enoate,C/C=C(/C)\C(=O)OCC(C)C,449.65,9,"[1, 6, 8]",3,True,CHO,ester
7299,"1,1-diethoxypentane",CCCCC(OCC)OCC,449.92,9,"[1, 6, 8]",3,True,CHO,ester
7300,1-(1-ethoxyethoxy)pentane,CCCCCOC(C)OCC,449.92,9,"[1, 6, 8]",3,True,CHO,ester
7301,1-(1-methoxyethoxy)hexane,CCCCCCOC(C)OC,449.92,9,"[1, 6, 8]",3,True,CHO,ester
7302,"1,2-dimethylcyclohex-3-ene-1-carbaldehyde",CC1C=CCCC1(C)C=O,450.15,9,"[1, 6, 8]",3,True,CHO,alkene
7303,ethyl 3-methylhexanoate,CCCC(C)CC(=O)OCC,450.15,9,"[1, 6, 8]",3,True,CHO,ester
7304,"4-methylidene-1,3-diazatricyclo[3.3.1.13,7]decane",C=C1C2CC3CN(C2)CN1C3,450.18,9,"[1, 6, 7]",3,True,CHN,alkene
7305,1-methoxybicyclo[2.2.2]octane,COC12CCC(CC1)CC2,450.2,9,"[1, 6, 8]",3,True,CHO,ester
7306,"2,3,4,5,6,7-hexahydro-1H-indene",C1CCC2=C(C1)CCC2,450.27,9,"[1, 6]",2,True,CH,alkene
7307,1-(2-propoxyethoxy)butane,CCCCOCCOCCC,450.36,9,"[1, 6, 8]",3,True,CHO,ester
7308,"3,3,5-trimethylhexanal",CC(C)CC(C)(C)CC=O,450.51,9,"[1, 6, 8]",3,True,CHO,aldehyde
7309,3-ethyl-2-methylhexan-2-ol,CCCC(CC)C(C)(C)O,450.65,9,"[1, 6, 8]",3,True,CHO,alcohol
7310,1-methoxy-5-methyl-3-methylidenecyclohexene,CC1CC(=C)C=C(C1)OC,450.79,9,"[1, 6, 8]",3,True,CHO,ester
7311,4-ethoxy-3-hydroxybenzaldehyde,CCOC1=C(C=C(C=C1)C=O)O,451.15,9,"[1, 6, 8]",3,True,CHO,ester
7312,"2,3,4,7-tetrahydro-1H-indene",C1CC2=C(C1)CC=CC2,451.2,9,"[1, 6]",2,True,CH,alkene
7313,1-ethenoxy-4-methylbenzene,CC1=CC=C(C=C1)OC=C,451.65,9,"[1, 6, 8]",3,True,CHO,ester
7314,"N,N,N',N',N"",N"",N""',N""'-octamethylmethanetetramine",CN(C)C(N(C)C)(N(C)C)N(C)C,452.05,9,"[1, 6, 7]",3,True,CHN,amine
7315,"2,3,4-trimethylhexan-3-ol",CCC(C)C(C)(C(C)C)O,452.15,9,"[1, 6, 8]",3,True,CHO,alcohol
7316,"4-methyl-2-pentyl-1,3-dioxolane",CCCCCC1OCC(O1)C,452.15,9,"[1, 6, 8]",3,True,CHO,ester
7317,"3,3,5-trimethylcyclohexan-1-amine",CC1CC(CC(C1)(C)C)N,452.75,9,"[1, 6, 7]",3,True,CHN,amine
7318,3-methyloctan-4-ol,CCCCC(C(C)CC)O,453.15,9,"[1, 6, 8]",3,True,CHO,alcohol
7319,"3,3,4,4-tetramethylpentan-2-ol",CC(C(C)(C)C(C)(C)C)O,453.15,9,"[1, 6, 8]",3,True,CHO,alcohol
7320,3-methoxy-8-methyl-8-azabicyclo[3.2.1]octane,CN1C2CCC1CC(C2)OC,453.46,9,"[1, 6, 7, 8]",4,True,CHON,ester
7321,2-methoxy-8-methyl-8-azabicyclo[3.2.1]octane,CN1C2CCC1C(CC2)OC,453.46,9,"[1, 6, 7, 8]",4,True,CHON,ester
7322,3-ethylheptanal,CCCCC(CC)CC=O,453.74,9,"[1, 6, 8]",3,True,CHO,aldehyde
7323,2-methyloctanal,CCCCCCC(C)C=O,453.74,9,"[1, 6, 8]",3,True,CHO,aldehyde
7324,N-ethylheptan-1-amine,CCCCCCCNCC,453.85,9,"[1, 6, 7]",3,True,CHN,amine
7325,"1,3,5-trimethylcyclohexan-1-ol",CC1CC(CC(C1)(C)O)C,454.15,9,"[1, 6, 8]",3,True,CHO,alcohol
7326,2-methyloctan-3-ol,CCCCCC(C(C)C)O,454.65,9,"[1, 6, 8]",3,True,CHO,alcohol
7327,"1-propan-2-yloxycyclohexa-1,4-diene",CC(C)OC1=CCC=CC1,455.02,9,"[1, 6, 8]",3,True,CHO,ester
7328,"2-propan-2-yloxycyclohexa-1,3-diene",CC(C)OC1=CCCC=C1,455.02,9,"[1, 6, 8]",3,True,CHO,ester
7329,"1,1-dimethoxyheptane",CCCCCCC(OC)OC,455.15,9,"[1, 6, 8]",3,True,CHO,ester
7330,4-methyloctan-2-one,CCCCC(C)CC(=O)C,455.15,9,"[1, 6, 8]",3,True,CHO,ketone
7331,3-ethylheptan-3-ol,CCCCC(CC)(CC)O,455.35,9,"[1, 6, 8]",3,True,CHO,alcohol
7332,7-methyloctan-3-one,CCC(=O)CCCC(C)C,455.65,9,"[1, 6, 8]",3,True,CHO,ketone
7333,2-(2-methylpropyl)pyridine,CC(C)CC1=CC=CC=N1,455.65,9,"[1, 6, 7]",3,True,CHN,aromatic
7334,"1-methoxy-3,5-dimethylcyclohexa-1,4-diene",CC1C=C(CC(=C1)OC)C,455.77,9,"[1, 6, 8]",3,True,CHO,ester
7335,"3-methoxy-1,5-dimethylcyclohexa-1,3-diene",CC1CC(=CC(=C1)OC)C,455.77,9,"[1, 6, 8]",3,True,CHO,ester
7336,non-8-en-2-one,CC(=O)CCCCCC=C,456.07,9,"[1, 6, 8]",3,True,CHO,alkene
7337,"2,3-dimethylheptan-2-ol",CCCCC(C)C(C)(C)O,456.65,9,"[1, 6, 8]",3,True,CHO,alcohol
7338,2-methylprop-2-enyl 2-methylidenebutanoate,CCC(=C)C(=O)OCC(=C)C,456.86,9,"[1, 6, 8]",3,True,CHO,ester
7339,2-methyloctan-4-ol,CCCCC(CC(C)C)O,457.15,9,"[1, 6, 8]",3,True,CHO,alcohol
7340,"ethyl 3,3-dimethylpent-4-enoate",CCOC(=O)CC(C)(C)C=C,457.19,9,"[1, 6, 8]",3,True,CHO,ester
7341,3-ethyl-2-methylhexan-3-ol,CCCC(CC)(C(C)C)O,457.25,9,"[1, 6, 8]",3,True,CHO,alcohol
7342,1-(cyclopenten-1-yl)pyrrolidine,C1CCN(C1)C2=CCCC2,457.73,9,"[1, 6, 7]",3,True,CHN,alkene
7343,1-(cyclohexen-1-yl)azetidine,C1CCC(=CC1)N2CCC2,457.73,9,"[1, 6, 7]",3,True,CHN,alkene
7344,"3,3,6,6,9,9-hexamethyl-1,2,4,5,7,8-hexaoxonane",CC1(OOC(OOC(OO1)(C)C)(C)C)C,458.08,9,"[1, 6, 8]",3,True,CHO,ester
7345,7-methyloctan-4-ol,CCCC(CCC(C)C)O,458.15,9,"[1, 6, 8]",3,True,CHO,alcohol
7346,"1-phenylpropane-1,2,3-triol",C1=CC=C(C=C1)C(C(CO)O)O,458.15,9,"[1, 6, 8]",3,True,CHO,aromatic
7347,(Z)-non-6-enal,CC/C=C\CCCCC=O,458.34,9,"[1, 6, 8]",3,True,CHO,alkene
7348,"N,N-dimethyl-2-(4-methylpiperazin-1-yl)ethanamine",CN1CCN(CC1)CCN(C)C,458.52,9,"[1, 6, 7]",3,True,CHN,amine
7349,"6-ethyl-2,3-dimethylpyridine",CCC1=NC(=C(C=C1)C)C,458.65,9,"[1, 6, 7]",3,True,CHN,aromatic
7350,8-methoxy-8-oxooctanoic acid,COC(=O)CCCCCCC(=O)O,458.65,9,"[1, 6, 8]",3,True,CHO,carboxylic_acid
7351,3-methyloctan-2-one,CCCCCC(C)C(=O)C,458.95,9,"[1, 6, 8]",3,True,CHO,ketone
7352,4-methyloctan-3-one,CCCCC(C)C(=O)CC,458.95,9,"[1, 6, 8]",3,True,CHO,ketone
7353,2-methyloctan-4-one,CCCCC(=O)CC(C)C,458.95,9,"[1, 6, 8]",3,True,CHO,ketone
7354,5-ethylheptan-2-one,CCC(CC)CCC(=O)C,458.95,9,"[1, 6, 8]",3,True,CHO,ketone
7355,5-methyloctan-2-one,CCCC(C)CCC(=O)C,458.95,9,"[1, 6, 8]",3,True,CHO,ketone
7356,1-(1-methylcyclohexyl)ethanone,CC(=O)C1(CCCCC1)C,459.35,9,"[1, 6, 8]",3,True,CHO,ketone
7357,4-methylpentan-2-yl prop-2-enoate,CC(C)CC(C)OC(=O)C=C,459.54,9,"[1, 6, 8]",3,True,CHO,ester
7358,3-methylbutyl 2-methylprop-2-enoate,CC(C)CCOC(=O)C(=C)C,459.86,9,"[1, 6, 8]",3,True,CHO,ester
7359,2-methylpropyl 2-methylidenebutanoate,CCC(=C)C(=O)OCC(C)C,459.86,9,"[1, 6, 8]",3,True,CHO,ester
7360,4-methylpentyl prop-2-enoate,CC(C)CCCOC(=O)C=C,459.98,9,"[1, 6, 8]",3,True,CHO,ester
7361,hept-1-en-3-yl acetate,CCCCC(C=C)OC(=O)C,459.98,9,"[1, 6, 8]",3,True,CHO,ester
7362,"2-methylpropyl 2,2-dimethylpropanoate",CC(C)COC(=O)C(C)(C)C,460.07,9,"[1, 6, 8]",3,True,CHO,ester
7363,"butan-2-yl 2,2-dimethylpropanoate",CCC(C)OC(=O)C(C)(C)C,460.07,9,"[1, 6, 8]",3,True,CHO,ester
7364,tert-butyl 3-methylbutanoate,CC(C)CC(=O)OC(C)(C)C,460.07,9,"[1, 6, 8]",3,True,CHO,ester
7365,"2,2,6-trimethylcyclohexan-1-ol",CC1CCCC(C1O)(C)C,460.15,9,"[1, 6, 8]",3,True,CHO,alcohol
7366,pentyl 2-methylprop-2-enoate,CCCCCOC(=O)C(=C)C,460.3,9,"[1, 6, 8]",3,True,CHO,ester
7367,butyl pent-4-enoate,CCCCOC(=O)CCC=C,460.42,9,"[1, 6, 8]",3,True,CHO,ester
7368,"butyl 2,2-dimethylpropanoate",CCCCOC(=O)C(C)(C)C,460.51,9,"[1, 6, 8]",3,True,CHO,ester
7369,"ethyl 2,2-dimethylpentanoate",CCCC(C)(C)C(=O)OCC,460.51,9,"[1, 6, 8]",3,True,CHO,ester
7370,tert-butyl pentanoate,CCCCC(=O)OC(C)(C)C,460.51,9,"[1, 6, 8]",3,True,CHO,ester
7371,methyl 2-ethyl-2-methylpentanoate,CCCC(C)(CC)C(=O)OC,460.51,9,"[1, 6, 8]",3,True,CHO,ester
7372,"2,4-diethylpyridine",CCC1=CC(=NC=C1)CC,460.65,9,"[1, 6, 7]",3,True,CHN,aromatic
7373,2-(4-methylpentan-2-yloxymethyl)oxirane,CC(C)CC(C)OCC1CO1,460.75,9,"[1, 6, 8]",3,True,CHO,ester
7374,"5,6-dimethylhept-5-en-2-one",CC(=C(C)CCC(=O)C)C,461.15,9,"[1, 6, 8]",3,True,CHO,alkene
7375,"2-ethyl-2,4-dimethylpentan-1-ol",CCC(C)(CC(C)C)CO,461.15,9,"[1, 6, 8]",3,True,CHO,alcohol
7376,"3-ethyl-2,6-dimethylpyridine",CCC1=C(N=C(C=C1)C)C,461.15,9,"[1, 6, 7]",3,True,CHN,aromatic
7377,"2,2,5-trimethylcyclohexan-1-ol",CC1CCC(C(C1)O)(C)C,461.15,9,"[1, 6, 8]",3,True,CHO,alcohol
7378,2-(hexoxymethyl)oxirane,CCCCCCOCC1CO1,461.63,9,"[1, 6, 8]",3,True,CHO,ester
7379,5-methyl-2-propan-2-ylcyclopent-2-en-1-one,CC1CC=C(C1=O)C(C)C,461.9,9,"[1, 6, 8]",3,True,CHO,alkene
7380,"N,N-dimethyl-1,1-dipropoxymethanamine",CCCOC(N(C)C)OCCC,462.36,9,"[1, 6, 7, 8]",4,True,CHON,ester
7381,9-methoxy-9-azabicyclo[3.3.1]nonane,CON1C2CCCC1CCC2,462.4,9,"[1, 6, 7, 8]",4,True,CHON,ester
7382,"2,4-dimethylpentan-3-yl acetate",CC(C)C(C(C)C)OC(=O)C,462.42,9,"[1, 6, 8]",3,True,CHO,ester
7383,"(2E,6Z)-nona-2,6-dienal",CC/C=C\CC/C=C/C=O,462.5,9,"[1, 6, 8]",3,True,CHO,alkene
7384,"(2E,4E)-nona-2,4-dienal",CCCC/C=C/C=C/C=O,462.5,9,"[1, 6, 8]",3,True,CHO,alkene
7385,"nona-2,6-dienal",CCC=CCCC=CC=O,462.5,9,"[1, 6, 8]",3,True,CHO,alkene
7386,2-methylpropyl 2-methylbutanoate,CCC(C)C(=O)OCC(C)C,462.86,9,"[1, 6, 8]",3,True,CHO,ester
7387,2-methylbutyl 2-methylpropanoate,CCC(C)COC(=O)C(C)C,462.86,9,"[1, 6, 8]",3,True,CHO,ester
7388,propan-2-yl 2-ethylbutanoate,CCC(CC)C(=O)OC(C)C,462.86,9,"[1, 6, 8]",3,True,CHO,ester
7389,pentan-2-yl 2-methylpropanoate,CCCC(C)OC(=O)C(C)C,462.86,9,"[1, 6, 8]",3,True,CHO,ester
7390,3-methylbutan-2-yl butanoate,CCCC(=O)OC(C)C(C)C,462.86,9,"[1, 6, 8]",3,True,CHO,ester
7391,"3,6-dimethylhept-5-en-2-one",CC(CC=C(C)C)C(=O)C,462.99,9,"[1, 6, 8]",3,True,CHO,alkene
7392,7-methyloct-5-en-4-one,CCCC(=O)C=CC(C)C,463.11,9,"[1, 6, 8]",3,True,CHO,alkene
7393,(E)-5-ethylhept-3-en-2-one,CCC(CC)/C=C/C(=O)C,463.11,9,"[1, 6, 8]",3,True,CHO,alkene
7394,methyl 2-ethylhexanoate,CCCCC(CC)C(=O)OC,463.3,9,"[1, 6, 8]",3,True,CHO,ester
7395,butan-2-yl pentanoate,CCCCC(=O)OC(C)CC,463.3,9,"[1, 6, 8]",3,True,CHO,ester
7396,2-methylbutyl butanoate,CCCC(=O)OCC(C)CC,463.3,9,"[1, 6, 8]",3,True,CHO,ester
7397,methyl 2-methylheptanoate,CCCCCC(C)C(=O)OC,463.3,9,"[1, 6, 8]",3,True,CHO,ester
7398,pentan-2-yl butanoate,CCCC(C)OC(=O)CCC,463.3,9,"[1, 6, 8]",3,True,CHO,ester
7399,6-methyloct-5-en-2-one,CCC(=CCCC(=O)C)C,463.43,9,"[1, 6, 8]",3,True,CHO,alkene
7400,(E)-non-3-en-2-one,CCCCC/C=C/C(=O)C,463.55,9,"[1, 6, 8]",3,True,CHO,alkene
7401,(E)-non-2-en-4-one,CCCCCC(=O)/C=C/C,463.55,9,"[1, 6, 8]",3,True,CHO,alkene
7402,"4,6-dimethylheptan-2-one",CC(C)CC(C)CC(=O)C,463.65,9,"[1, 6, 8]",3,True,CHO,ketone
7403,"2,2-dimethoxybicyclo[2.2.1]heptane",COC1(CC2CCC1C2)OC,463.68,9,"[1, 6, 8]",3,True,CHO,ester
7404,"3,4,4-trimethylhexan-1-ol",CCC(C)(C)C(C)CCO,464.15,9,"[1, 6, 8]",3,True,CHO,alcohol
7405,2-but-3-ynoxyoxane,C#CCCOC1CCCCO1,464.56,9,"[1, 6, 8]",3,True,CHO,ester
7406,"methyl (4E)-octa-4,7-dienoate",COC(=O)CC/C=C/CC=C,464.58,9,"[1, 6, 8]",3,True,CHO,ester
7407,tert-butyl (E)-pent-3-enoate,C/C=C/CC(=O)OC(C)(C)C,464.67,9,"[1, 6, 8]",3,True,CHO,ester
7408,1-[bis(prop-2-enyl)amino]propan-2-one,CC(=O)CN(CC=C)CC=C,465.19,9,"[1, 6, 7, 8]",4,True,CHON,ketone
7409,5-methyl-3-(2-methylpropyl)oxolan-2-one,CC1CC(C(=O)O1)CC(C)C,465.37,9,"[1, 6, 8]",3,True,CHO,ester
7410,2-methoxyethylbenzene,COCCC1=CC=CC=C1,465.65,9,"[1, 6, 8]",3,True,CHO,ester
7411,nonan-4-ol,CCCCCC(CCC)O,465.65,9,"[1, 6, 8]",3,True,CHO,alcohol
7412,"1,5-diazabicyclo[3.3.3]undecane",C1CN2CCCN(C1)CCC2,466.03,9,"[1, 6, 7]",3,True,CHN,amine
7413,"1,6-diazabicyclo[4.4.1]undecane",C1CCN2CCCCN(C1)C2,466.03,9,"[1, 6, 7]",3,True,CHN,amine
7414,"1,6-diazabicyclo[4.3.2]undecane",C1CCN2CCCN(C1)CC2,466.03,9,"[1, 6, 7]",3,True,CHN,amine
7415,"1,7-diazabicyclo[5.3.1]undecane",C1CCN2CCCN(C2)CC1,466.03,9,"[1, 6, 7]",3,True,CHN,amine