,Name,SMILES,Tb,C Atom,Atom,Count Unique Atom,Pass Screen,Atom2,Func. Group
530,O-Isopropoxyphenol,CC(C)OC1=CC=CC=C1O,374.15,9,"[1, 6, 8]",3,True,CHO,ester
531,"1,6-Octadien-3-Ol, 3,7-Dimethyl-, Formate",CC(=CCCC(C)(C=C)OC=O)C,374.65,11,"[1, 6, 8]",3,True,CHO,ester
532,"1,4,7,10,13-Pentaoxacyclopentadecane",C1COCCOCCOCCOCCO1,390.65,10,"[1, 6, 8]",3,True,CHO,ester
533,Methyl Methacrylate,CC(=C)C(=O)OC,373.65,5,"[1, 6, 8]",3,True,CHO,ester
534,Cumene Hydroperoxide,CC(C)(C1=CC=CC=C1)OO,373.65,9,"[1, 6, 8]",3,True,CHO,aromatic
535,"Cyclopentanone, 2-Acetyl-",CC(=O)C1CCCC1=O,375.075,7,"[1, 6, 8]",3,True,CHO,ketone
536,Formic Acid,C(=O)O,374.15,1,"[1, 6, 8]",3,True,CHO,alcohol
537,"Propanoic Acid, 2,2-Dimethyl-, Methyl Ester",CC(C)(C)C(=O)OC,374.25,6,"[1, 6, 8]",3,True,CHO,ester
538,"1,4-Dioxane",C1COCCO1,374.65,4,"[1, 6, 8]",3,True,CHO,ester
539,N-Propyl Acetate,CCCOC(=O)C,374.65,5,"[1, 6, 8]",3,True,CHO,ester
540,3-Pentanone,CCC(=O)CC,375.04999999999995,5,"[1, 6, 8]",3,True,CHO,ketone
541,"1-Naphthalenol, 1,2,3,4-Tetrahydro-",C1CC(C2=CC=CC=C2C1)O,376.15,10,"[1, 6, 8]",3,True,CHO,aromatic
542,Trans-Crotonaldehyde,C/C=C/C=O,375.34999999999997,4,"[1, 6, 8]",3,True,CHO,alkene
543,2-Pentanone,CCCC(=O)C,375.34999999999997,5,"[1, 6, 8]",3,True,CHO,ketone
544,"1,1-Diethoxyethane",CCOC(C)OCC,375.34999999999997,6,"[1, 6, 8]",3,True,CHO,ester
545,2-Methyl-2-Butanol,CCC(C)(C)O,375.54999999999995,5,"[1, 6, 8]",3,True,CHO,alcohol
546,1-Pentanal,CCCCC=O,376.15,5,"[1, 6, 8]",3,True,CHO,aldehyde
547,1-Penten-3-One,CCC(=O)C=C,376.15,5,"[1, 6, 8]",3,True,CHO,alkene
548,"1,4-Benzodioxan",C1COC2=CC=CC=C2O1,376.15,8,"[1, 6, 8]",3,True,CHO,ester
549,"Propiolic Acid, Methyl Ester",COC(=O)C#C,377.15,4,"[1, 6, 8]",3,True,CHO,ester
550,Allyl Acetate,CC(=O)OCC=C,376.65,5,"[1, 6, 8]",3,True,CHO,ester
551,Trimethoxymethane,COC(OC)OC,377.15,4,"[1, 6, 8]",3,True,CHO,ester
552,2-Methyl-3-Butyn-2-Ol,CC(C)(C#C)O,377.15,5,"[1, 6, 8]",3,True,CHO,alkyne
553,Isobutyric Acid Vinyl Ester,CC(C)C(=O)OC=C,377.65,6,"[1, 6, 8]",3,True,CHO,ester
554,3-Cyclohexene-1-Carboxaldehyde,C1CC(CC=C1)C=O,378.15,7,"[1, 6, 8]",3,True,CHO,alkene
555,Perbenzoic Acid,C1=CC=C(C=C1)C(=O)OO,378.15,7,"[1, 6, 8]",3,True,CHO,aromatic
556,Cycloundecanone,C1CCCCCC(=O)CCCC1,379.15,11,"[1, 6, 8]",3,True,CHO,ketone
557,"1,3-Dioxane",C1COCOC1,379.25,4,"[1, 6, 8]",3,True,CHO,ester
558,N-Butylformate,CCCCOC=O,379.25,5,"[1, 6, 8]",3,True,CHO,ester
559,"3,3-Dimethyl-2-Butanone",CC(=O)C(C)(C)C,379.25,6,"[1, 6, 8]",3,True,CHO,ketone
560,3-Butyn-2-Ol,CC(C#C)O,379.65,4,"[1, 6, 8]",3,True,CHO,alkyne
561,"Propane, 2-Methyl-1-Propoxy-",CCCOCC(C)C,380.15,7,"[1, 6, 8]",3,True,CHO,ester
562,"Benzyl Alcohol, Alpha-Ethyl-Alpha-Methyl-",CCC(C)(C1=CC=CC=C1)O,380.65,10,"[1, 6, 8]",3,True,CHO,aromatic
563,Isobutyl Alcohol,CC(C)CO,380.95,4,"[1, 6, 8]",3,True,CHO,alcohol
564,"1,1,1-Trimethoxyethane",CC(OC)(OC)OC,381.15,5,"[1, 6, 8]",3,True,CHO,ester
565,"2,3-Pentanedione",CCC(=O)C(=O)C,381.15,5,"[1, 6, 8]",3,True,CHO,ketone
566,Diallyl Maleate,C=CCOC(=O)/C=C\C(=O)OCC=C,382.15,10,"[1, 6, 8]",3,True,CHO,ester
567,Diosphenol,CC1=C(C(=O)C(CC1)C(C)C)O,382.15,10,"[1, 6, 8]",3,True,CHO,alkene
568,Decahydro-2-Naphthol,C1CCC2CC(CCC2C1)O,382.15,10,"[1, 6, 8]",3,True,CHO,alcohol
569,Pentaerythritol Diacrolein Acetal,C=CC1OCC2(CO1)COC(OC2)C=C,382.15,11,"[1, 6, 8]",3,True,CHO,ester
570,4-Hydroxy-2-Butanone,CC(=O)CCO,382.15,4,"[1, 6, 8]",3,True,CHO,alcohol
571,"Furan, 2-Ethyltetrahydro-",CCC1CCCO1,382.15,6,"[1, 6, 8]",3,True,CHO,ester
572,"Butane, 1-(1-Methylethoxy)-",CCCCOC(C)C,382.15,7,"[1, 6, 8]",3,True,CHO,ester
573,"Oxirane, ((2-Methylphenoxy)methyl)-",CC1=CC=CC=C1OCC2CO2,383.15,10,"[1, 6, 8]",3,True,CHO,ester
574,Isopropyl Propionate,CCC(=O)OC(C)C,382.65,6,"[1, 6, 8]",3,True,CHO,ester
575,2-Ethylhexyl 2-Methyl-2-Propenoate,CCCCC(CC)COC(=O)C(=C)C,383.15,12,"[1, 6, 8]",3,True,CHO,ester
576,O-Acetylbenzoic Acid,CC(=O)C1=CC=CC=C1C(=O)O,384.15,9,"[1, 6, 8]",3,True,CHO,carboxylic_acid
577,"Cyclohexanol, 4-(1,1-Dimethylethyl)-",CC(C)(C)C1CCC(CC1)O,385.65,10,"[1, 6, 8]",3,True,CHO,alcohol
578,Ethyl Isobutyrate,CCOC(=O)C(C)C,383.25,6,"[1, 6, 8]",3,True,CHO,ester
579,2-Methoxyfuran,COC1=CC=CO1,383.65,5,"[1, 6, 8]",3,True,CHO,ester
580,Cyclopropyl Methyl Ketone,CC(=O)C1CC1,384.45,5,"[1, 6, 8]",3,True,CHO,ketone
581,Ethyl Chrysanthemate,CCOC(=O)C1C(C1(C)C)C=C(C)C,385.15,12,"[1, 6, 8]",3,True,CHO,ester
582,3-Methyl-2-Butanol,CC(C)C(C)O,385.15,5,"[1, 6, 8]",3,True,CHO,alcohol
583,"Bis(1,2-Epoxypropylether)ethanediol",C1C(O1)COCCOCC2CO2,385.15,8,"[1, 6, 8]",3,True,CHO,ester
584,Glycidylaldehyde,C1C(O1)C=O,385.65,3,"[1, 6, 8]",3,True,CHO,ester
585,"Butane, 1-(ethenyloxy)-3-Methyl-",CC(C)CCOC=C,385.65,7,"[1, 6, 8]",3,True,CHO,ester
586,"Oxirane, (methoxymethyl)-",COCC1CO1,386.15,4,"[1, 6, 8]",3,True,CHO,ester
587,"3-Buten-2-One, 4-(2-Furanyl)-",CC(=O)/C=C/C1=CC=CO1,386.15,8,"[1, 6, 8]",3,True,CHO,alkene
588,Sebacoin,C1CCCCC(=O)C(CCC1)O,386.65,10,"[1, 6, 8]",3,True,CHO,alcohol
589,3-Buten-1-Ol,C=CCCO,386.65,4,"[1, 6, 8]",3,True,CHO,alkene
590,"2,2-Dimethyl-1-Propanol",CC(C)(C)CO,386.65,5,"[1, 6, 8]",3,True,CHO,alcohol
591,2-Methyl-3-Pentanone,CCC(=O)C(C)C,386.65,6,"[1, 6, 8]",3,True,CHO,ketone
592,"Cyclohexanone, 4-(1,1-Dimethylethyl)-",CC(C)(C)C1CCC(=O)CC1,387.15,10,"[1, 6, 8]",3,True,CHO,ketone
593,"3-Buten-2-Ol, 3-Methyl-",CC(C(=C)C)O,387.15,5,"[1, 6, 8]",3,True,CHO,alkene
594,4-Methyldioxane,CC1CCOCO1,387.15,5,"[1, 6, 8]",3,True,CHO,ester
595,Tetramethoxymethane,COC(OC)(OC)OC,387.15,5,"[1, 6, 8]",3,True,CHO,ester
596,"2,2-Diethoxypropane",CCOC(C)(C)OCC,387.15,7,"[1, 6, 8]",3,True,CHO,ester
597,"Propanoic Acid, 2-Methyl-, Phenylmethyl Ester",CC(C)C(=O)OCC1=CC=CC=C1,387.65,11,"[1, 6, 8]",3,True,CHO,ester
598,Propargyl Alcohol,C#CCO,387.65,3,"[1, 6, 8]",3,True,CHO,alkyne
599,"1,3,5-Trioxane",C1OCOCO1,387.65,3,"[1, 6, 8]",3,True,CHO,ester
600,"Cyclopropanecarboxylic Acid, Methyl Ester",COC(=O)C1CC1,388.04999999999995,5,"[1, 6, 8]",3,True,CHO,ester
601,"3,4-Dihydro-1(2h)-Naphthalenone",C1CC2=CC=CC=C2C(=O)C1,388.15,10,"[1, 6, 8]",3,True,CHO,aromatic
602,Codlemone,C/C=C/C=C/CCCCCCCO,388.15,12,"[1, 6, 8]",3,True,CHO,alkene
603,Citronellyl Acetate,CC(CCC=C(C)C)CCOC(=O)C,388.15,12,"[1, 6, 8]",3,True,CHO,ester
604,1-Penten-3-Ol,CCC(C=C)O,388.15,5,"[1, 6, 8]",3,True,CHO,alkene
605,"Furan, 2-Propyl-",CCCC1=CC=CO1,388.15,7,"[1, 6, 8]",3,True,CHO,aromatic
606,"Hexanedioic Acid, Dimethyl Ester",COC(=O)CCCCC(=O)OC,388.15,8,"[1, 6, 8]",3,True,CHO,ester
607,"1,4-Pentadien-3-Ol",C=CC(C=C)O,388.65,5,"[1, 6, 8]",3,True,CHO,alkene
608,1-Methoxy-2-Propanone,CC(=O)COC,389.15,4,"[1, 6, 8]",3,True,CHO,ester
609,4-Penten-2-Ol,CC(CC=C)O,389.15,5,"[1, 6, 8]",3,True,CHO,alkene
610,"1,3-Dioxolane, 2-Ethyl-2-Methyl-",CCC1(OCCO1)C,389.65,6,"[1, 6, 8]",3,True,CHO,ester
611,3-Pentanol,CCC(CC)O,389.34999999999997,5,"[1, 6, 8]",3,True,CHO,alcohol
612,4-Methyl-2-Pentanone,CC(C)CC(=O)C,389.65,6,"[1, 6, 8]",3,True,CHO,ketone
613,Iso-Butylacetate,CC(C)COC(=O)C,389.65,6,"[1, 6, 8]",3,True,CHO,ester
614,"1,3-Dioxane, 2,4-Dimethyl-",CC1CCOC(O1)C,389.65,6,"[1, 6, 8]",3,True,CHO,ester
615,"1,3-Dioxolane, 2-(phenylmethyl)-",C1COC(O1)CC2=CC=CC=C2,390.15,10,"[1, 6, 8]",3,True,CHO,ester
616,"2-Butenal, 2-Methyl-",C/C=C(\C)/C=O,390.15,5,"[1, 6, 8]",3,True,CHO,alkene
617,Ethyl Methacrylate,CCOC(=O)C(=C)C,390.15,6,"[1, 6, 8]",3,True,CHO,ester
618,2-Methylpentaldehyde,CCCC(C)C=O,390.15,6,"[1, 6, 8]",3,True,CHO,aldehyde
619,"1-Penten-3-Ol, 3-Methyl-",CCC(C)(C=C)O,390.65,6,"[1, 6, 8]",3,True,CHO,alkene
620,2-Ethylbutyraldehyde,CCC(CC)C=O,391.15,6,"[1, 6, 8]",3,True,CHO,aldehyde
621,Delta-Decalactone,CCCCCC1CCCC(=O)O1,391.65,10,"[1, 6, 8]",3,True,CHO,ester
622,"4-Methyl-3,6-Dihydro-2h-Pyran",CC1=CCOCC1,390.65,6,"[1, 6, 8]",3,True,CHO,ester
623,"2-Methoxy-3,4-Dihydro-2h-Pyran",COC1CCC=CO1,390.75,6,"[1, 6, 8]",3,True,CHO,ester
624,"Pentane, 1-Ethoxy-",CCCCCOCC,390.75,7,"[1, 6, 8]",3,True,CHO,ester
625,1-Butanol,CCCCO,390.84999999999997,4,"[1, 6, 8]",3,True,CHO,alcohol
626,Acetic Acid,CC(=O)O,391.04999999999995,2,"[1, 6, 8]",3,True,CHO,alcohol
627,"2-Butenoic Acid, Methyl Ester, (z)-",C/C=C\C(=O)OC,391.15,5,"[1, 6, 8]",3,True,CHO,ester
628,3-Methylpentan-2-One,CCC(C)C(=O)C,391.15,6,"[1, 6, 8]",3,True,CHO,ketone
629,"Butane, 1-Propoxy-",CCCCOCCC,391.25,7,"[1, 6, 8]",3,True,CHO,ester
630,Tert-Butyl Propionate,CCC(=O)OC(C)(C)C,391.4,7,"[1, 6, 8]",3,True,CHO,ester
631,"2,3-Dimethyl-2-Butanol",CC(C)C(C)(C)O,391.54999999999995,6,"[1, 6, 8]",3,True,CHO,alcohol
632,"Propanoic Acid, 2,2-Dimethyl-, Ethyl Ester",CCOC(=O)C(C)(C)C,391.54999999999995,7,"[1, 6, 8]",3,True,CHO,ester
633,"1-Penten-3-One, 2-Methyl-",CCC(=O)C(=C)C,391.65,6,"[1, 6, 8]",3,True,CHO,alkene
634,1-Methoxy-2-Propanol,CC(COC)O,392.15,4,"[1, 6, 8]",3,True,CHO,ester
635,"3-Butenoic Acid, Ethyl Ester",CCOC(=O)CC=C,392.15,6,"[1, 6, 8]",3,True,CHO,ester
636,Oxepane,C1CCCOCC1,392.15,6,"[1, 6, 8]",3,True,CHO,ester
637,2-Pentanol,CCCC(C)O,392.45,5,"[1, 6, 8]",3,True,CHO,alcohol
638,"1,2-Diethoxyethane",CCOCCOCC,392.54999999999995,6,"[1, 6, 8]",3,True,CHO,ester
639,Ethyl Propynoate,CCOC(=O)C#C,393.15,5,"[1, 6, 8]",3,True,CHO,ester
640,"Heptanedioic Acid, Dimethyl Ester",COC(=O)CCCCCC(=O)OC,393.15,9,"[1, 6, 8]",3,True,CHO,ester
641,M-Methylphenylacetic Acid,CC1=CC(=CC=C1)CC(=O)O,394.65,9,"[1, 6, 8]",3,True,CHO,aromatic
642,Diethylene Glycol Dimethacrylate,CC(=C)C(=O)OCCOCCOC(=O)C(=C)C,395.65,12,"[1, 6, 8]",3,True,CHO,ester
643,"3,6,9,12-Tetraoxatetradeca-1,13-Diene",C=COCCOCCOCCOC=C,396.15,10,"[1, 6, 8]",3,True,CHO,ester
644,"2,6-Dimethylhept-5-En-1-Al",CC(CCC=C(C)C)C=O,393.2,9,"[1, 6, 8]",3,True,CHO,alkene
645,"3,3-Dimethyl-2-Butanol",CC(C(C)(C)C)O,393.54999999999995,6,"[1, 6, 8]",3,True,CHO,alcohol
646,Isopropyl Isobutyrate,CC(C)C(=O)OC(C)C,393.84999999999997,7,"[1, 6, 8]",3,True,CHO,ester
647,2-Nonynoic Acid Methyl Ester,CCCCCCC#CC(=O)OC,394.15,10,"[1, 6, 8]",3,True,CHO,ester
648,"2-Butenoic Acid, Methyl Ester, (e)-",C/C=C/C(=O)OC,394.15,5,"[1, 6, 8]",3,True,CHO,ester
649,"3-Hexenal, (z)-",CC/C=C\CC=O,394.15,6,"[1, 6, 8]",3,True,CHO,alkene
650,"Pentanal, 3-Methyl-",CCC(C)CC=O,394.15,6,"[1, 6, 8]",3,True,CHO,aldehyde
651,"Furan, Tetrahydro-2,2,4,4-Tetramethyl-",CC1(CC(OC1)(C)C)C,394.15,8,"[1, 6, 8]",3,True,CHO,ester
652,"6-Octenoic Acid, 3,7-Dimethyl-",CC(CCC=C(C)C)CC(=O)O,394.65,10,"[1, 6, 8]",3,True,CHO,alkene
653,2-Methyl-2-Pentanol,CCCC(C)(C)O,394.25,6,"[1, 6, 8]",3,True,CHO,alcohol
654,"2-Buten-1-Ol, (e)-",C/C=C/CO,394.34999999999997,4,"[1, 6, 8]",3,True,CHO,alkene
655,Ethylbutyrate,C1CN(CC1C(=O)N)CC2=CC=CC=C2,394.65,12,"[1, 6, 7, 8]",4,True,CHON,amide
656,Cyclopropyl Phenyl Ketone,C1CC1C(=O)C2=CC=CC=C2,395.15,10,"[1, 6, 8]",3,True,CHO,aromatic
657,Lactic Acid,CC(C(=O)O)O,395.15,3,"[1, 6, 8]",3,True,CHO,alcohol
658,"3-Penten-2-One, (e)-",C/C=C/C(=O)C,395.15,5,"[1, 6, 8]",3,True,CHO,alkene
659,3-Methyl-3-Pentanol,CCC(C)(CC)O,395.54999999999995,6,"[1, 6, 8]",3,True,CHO,alcohol
660,Sebacil,C1CCCCC(=O)C(=O)CCC1,395.65,10,"[1, 6, 8]",3,True,CHO,ketone
661,"Undecanoic Acid, Methyl Ester",CCCCCCCCCCC(=O)OC,396.15,12,"[1, 6, 8]",3,True,CHO,ester
662,"Propane, 1,1-Diethoxy-",CCC(OCC)OCC,396.15,7,"[1, 6, 8]",3,True,CHO,ester
663,O-Methoxyphenyl Acetate,CC(=O)OC1=CC=CC=C1OC,396.65,9,"[1, 6, 8]",3,True,CHO,ester
664,Fenipentol,CCCCC(C1=CC=CC=C1)O,396.65,11,"[1, 6, 8]",3,True,CHO,aromatic
665,"Cyclopropanemethanol, .alpha.-Methyl-",CC(C1CC1)O,396.65,5,"[1, 6, 8]",3,True,CHO,alcohol
666,3-Hexanone,CCCC(=O)CC,396.65,6,"[1, 6, 8]",3,True,CHO,ketone
667,Isoamyl Formate,CC(C)CCOC=O,396.65,6,"[1, 6, 8]",3,True,CHO,ester
668,"1-Propene, 3,3-Diethoxy-",CCOC(C=C)OCC,396.65,7,"[1, 6, 8]",3,True,CHO,ester
669,Cyclobutanol,C1CC(C1)O,397.15,4,"[1, 6, 8]",3,True,CHO,alcohol
670,"Propanoic Acid, 2-Propenyl Ester",CCC(=O)OCC=C,397.15,6,"[1, 6, 8]",3,True,CHO,ester
671,2-Methoxyethanol,COCCO,397.25,3,"[1, 6, 8]",3,True,CHO,ester
672,Isomesityl Oxide,CC(=C)CC(=O)C,397.34999999999997,6,"[1, 6, 8]",3,True,CHO,alkene
673,Paraldehyde,CC1OC(OC(O1)C)C,397.45,6,"[1, 6, 8]",3,True,CHO,ester
674,4-Ethylacetophenone,CCC1=CC=C(C=C1)C(=O)C,398.15,10,"[1, 6, 8]",3,True,CHO,aromatic
675,Pent-1-Yn-3-Ol,CCC(C#C)O,398.15,5,"[1, 6, 8]",3,True,CHO,alkyne
676,"1,5-Hexadiene,3,4-Dihydroxy-",C=CC(C(C=C)O)O,398.15,6,"[1, 6, 8]",3,True,CHO,alkene
677,Isopropyl Methacrylate,CC(C)OC(=O)C(=C)C,398.15,7,"[1, 6, 8]",3,True,CHO,ester
678,"Benzeneethanol, .alpha.-Methyl-",CC(CC1=CC=CC=C1)O,398.15,9,"[1, 6, 8]",3,True,CHO,aromatic
679,1-(2-Methoxy-Phenyl)-Ethanol,CC(C1=CC=CC=C1OC)O,398.15,9,"[1, 6, 8]",3,True,CHO,ester
680,"Propanoic Acid, 2-Methyl-, 2-Phenoxyethyl Ester",CC(C)C(=O)OCCOC1=CC=CC=C1,399.15,12,"[1, 6, 8]",3,True,CHO,ester
681,"2,4-Dimethyl-3-Pentanone",CC(C)C(=O)C(C)C,398.54999999999995,7,"[1, 6, 8]",3,True,CHO,ketone
682,"4-Penten-2-Ol, 3-Methyl-",CC(C=C)C(C)O,398.65,6,"[1, 6, 8]",3,True,CHO,alkene
683,"Ethanone, 1-(1-Hydroxycyclohexyl)-",CC(=O)C1(CCCCC1)O,398.65,8,"[1, 6, 8]",3,True,CHO,alcohol
684,"3-Pentanone, 2,2-Dimethyl-",CCC(=O)C(C)(C)C,398.75,7,"[1, 6, 8]",3,True,CHO,ketone
685,Delta-Dodecalactone,CCCCCCCC1CCCC(=O)O1,399.15,12,"[1, 6, 8]",3,True,CHO,ester
686,Diethyl Carbonate,CCOC(=O)OCC,399.15,5,"[1, 6, 8]",3,True,CHO,ester
687,"2-Pentanone, 4,4-Dimethyl-",CC(=O)CC(C)(C)C,399.15,7,"[1, 6, 8]",3,True,CHO,ketone
688,Diketene,C=C1CC(=O)O1,399.25,4,"[1, 6, 8]",3,True,CHO,ester
689,N-Butyl Acetate,CCCCOC(=O)C,399.25,6,"[1, 6, 8]",3,True,CHO,ester
690,"Hexane, 1-Methoxy-",CCCCCCOC,399.25,7,"[1, 6, 8]",3,True,CHO,ester
691,2-Methyl-3-Pentanol,CCC(C(C)C)O,399.65,6,"[1, 6, 8]",3,True,CHO,alcohol
692,"2-Cyclopenten-1-One, 2-Hexyl-",CCCCCCC1=CCCC1=O,400.15,11,"[1, 6, 8]",3,True,CHO,alkene
693,4-Hexen-2-One,C/C=C/CC(=O)C,400.15,6,"[1, 6, 8]",3,True,CHO,alkene
694,Methyl Valerate,CCCCC(=O)OC,400.54999999999995,6,"[1, 6, 8]",3,True,CHO,ester
695,2-Hexanone,CCCCC(=O)C,400.75,6,"[1, 6, 8]",3,True,CHO,ketone
696,"Oxirane, (ethoxymethyl)-",CCOCC1CO1,401.15,5,"[1, 6, 8]",3,True,CHO,ester
697,2-Methyl-1-Butanol,CCC(C)CO,401.15,5,"[1, 6, 8]",3,True,CHO,alcohol
698,2-Methoxytropolone,COC1=CC=CC=CC1=O,401.15,8,"[1, 6, 8]",3,True,CHO,ester
699,3-Butyn-1-Ol,C#CCCO,402.15,4,"[1, 6, 8]",3,True,CHO,alkyne
700,Acetin,CC(=O)OCC(CO)O,402.46,5,"[1, 6, 8]",3,True,CHO,ester
701,1-Hexen-5-One,CC(=O)CCC=C,402.65,6,"[1, 6, 8]",3,True,CHO,alkene
702,"1-Propanol, 2-Methoxy-",CC(CO)OC,403.15,4,"[1, 6, 8]",3,True,CHO,ester
703,Mesityl Oxide,CC(=CC(=O)C)C,403.15,6,"[1, 6, 8]",3,True,CHO,alkene
704,"3,4-Hexanedione",CCC(=O)C(=O)CC,403.15,6,"[1, 6, 8]",3,True,CHO,ketone
705,"Formic Acid, Pentyl Ester",CCCCCOC=O,403.54999999999995,6,"[1, 6, 8]",3,True,CHO,ester
706,Cyclopentanone,C1CCC(=O)C1,403.65,5,"[1, 6, 8]",3,True,CHO,ketone
707,"Butanoic Acid, 1-Methylethyl Ester",CCCC(=O)OC(C)C,403.65,7,"[1, 6, 8]",3,True,CHO,ester
708,2-Pentanol Acetate,CCCC(C)OC(=O)C,403.65,7,"[1, 6, 8]",3,True,CHO,ester
709,"2-Butene-1,4-Diol (trans)",C(/C=C/CO)O,404.15,4,"[1, 6, 8]",3,True,CHO,alkene
710,"Acetic Acid, Methoxy-, Methyl Ester",COCC(=O)OC,404.15,4,"[1, 6, 8]",3,True,CHO,ester
711,1-Ethoxy-2-Propanol,CCOCC(C)O,404.15,5,"[1, 6, 8]",3,True,CHO,ester
712,Hexanal,CCCCCC=O,404.15,6,"[1, 6, 8]",3,True,CHO,aldehyde
713,M-Ethoxyphenol,CCOC1=CC=CC(=C1)O,404.15,8,"[1, 6, 8]",3,True,CHO,ester
714,Isopentanol,CC(C)CCO,404.25,5,"[1, 6, 8]",3,True,CHO,alcohol
715,4-Methyl-2-Pentanol,CC(C)CC(C)O,404.75,6,"[1, 6, 8]",3,True,CHO,alcohol
716,3-Methyl-3-Buten-1-Ol,CC(=C)CCO,405.15,5,"[1, 6, 8]",3,True,CHO,alkene
717,"Furan, 2-(methoxymethyl)-",COCC1=CC=CO1,405.15,6,"[1, 6, 8]",3,True,CHO,ester
718,Isobutyl Acrylate,CC(C)COC(=O)C=C,405.15,7,"[1, 6, 8]",3,True,CHO,ester
719,Ethyl Oxalacetate,CCOC(=O)CC(=O)C(=O)OCC,405.15,8,"[1, 6, 8]",3,True,CHO,ester
720,"1,2-Benzopyran",C1C=CC2=CC=CC=C2O1,405.15,9,"[1, 6, 8]",3,True,CHO,ester
721,"Cyclohexane, Methoxy-",COC1CCCCC1,406.15,7,"[1, 6, 8]",3,True,CHO,ester
722,"Propanoic Acid, 1-Methylpropyl Ester",CCC(C)OC(=O)CC,406.15,7,"[1, 6, 8]",3,True,CHO,ester
723,3-Pentyl Acetate,CCC(CC)OC(=O)C,406.15,7,"[1, 6, 8]",3,True,CHO,ester
724,"2,4-Dimethyl-2-Pentanol",CC(C)CC(C)(C)O,406.25,7,"[1, 6, 8]",3,True,CHO,alcohol
725,"1,5-Hexadien-3-Ol",C=CCC(C=C)O,406.65,6,"[1, 6, 8]",3,True,CHO,alkene
726,Cyclopentanecarboxaldehyde,C1CCC(C1)C=O,406.65,6,"[1, 6, 8]",3,True,CHO,aldehyde
727,"2-Butenal, 3-Methyl-",CC(=CC=O)C,407.15,5,"[1, 6, 8]",3,True,CHO,alkene
728,Cyclopropanecarboxylic Acid Ethyl Ester,CCOC(=O)C1CC1,407.15,6,"[1, 6, 8]",3,True,CHO,ester
729,1-Hexen-3-Ol,CCCC(C=C)O,407.15,6,"[1, 6, 8]",3,True,CHO,alkene
730,"1-Pentyn-3-Ol, 3,4-Dimethyl-",CC(C)C(C)(C#C)O,407.15,7,"[1, 6, 8]",3,True,CHO,alkyne
731,3-Methyl-2-Pentanol,CCC(C)C(C)O,407.45,6,"[1, 6, 8]",3,True,CHO,alcohol
732,4-Methyl-3-Hexanone,CCC(C)C(=O)CC,407.65,7,"[1, 6, 8]",3,True,CHO,ketone
733,3-Hexanol,CCCC(CC)O,407.9,6,"[1, 6, 8]",3,True,CHO,alcohol
734,"4-Octyne-3,6-Diol, 3,6-Dimethyl-",CCC(C)(C#CC(C)(CC)O)O,408.15,10,"[1, 6, 8]",3,True,CHO,alkyne
735,"1-Butanol, 2,2-Bis((2-Propenyloxy)methyl)-",CCC(CO)(COCC=C)COCC=C,408.15,12,"[1, 6, 8]",3,True,CHO,ester
736,2-Ethoxyethanol,CCOCCO,408.15,4,"[1, 6, 8]",3,True,CHO,ester
737,2-Methyl-3-Hexanone,CCCC(=O)C(C)C,408.15,7,"[1, 6, 8]",3,True,CHO,ketone
738,"3-Hexanone, 5-Methyl-",CCC(=O)CC(C)C,408.15,7,"[1, 6, 8]",3,True,CHO,ketone
739,"2,2-Dimethyl-3-Pentanol",CCC(C(C)(C)C)O,408.15,7,"[1, 6, 8]",3,True,CHO,alcohol
740,"2-Propenal, 3-(2-Furanyl)-",C1=COC(=C1)/C=C/C=O,408.15,7,"[1, 6, 8]",3,True,CHO,alkene
741,2-Hydroxymethyl-6-Methoxy-Phenol,CC1=C(C(=CC=C1)CO)O,408.15,8,"[1, 6, 8]",3,True,CHO,aromatic
742,Ethyl 3-Phenylglycidate,CCOC(=O)C1C(O1)C2=CC=CC=C2,409.15,11,"[1, 6, 8]",3,True,CHO,ester
743,Ethyl Isovalerate,CCOC(=O)CC(C)C,408.15,7,"[1, 6, 8]",3,True,CHO,ester
744,Propyl Isobutyrate,CCCOC(=O)C(C)C,408.54999999999995,7,"[1, 6, 8]",3,True,CHO,ester
745,"Propanoic Acid, 2-Oxo-, Methyl Ester",CC(=O)C(=O)OC,408.65,4,"[1, 6, 8]",3,True,CHO,ester
746,2-Cyclopenten-1-One,C1CC(=O)C=C1,409.15,5,"[1, 6, 8]",3,True,CHO,alkene
747,1-Hydroxy-1-Methylcyclopentane,CC1(CCCC1)O,409.15,6,"[1, 6, 8]",3,True,CHO,alcohol
748,2-Hexanol,CCCCC(C)O,409.15,6,"[1, 6, 8]",3,True,CHO,alcohol
749,Dihydro-5-Pentyl-2(3h)-Furanone,CCCCCC1CCC(=O)O1,409.15,9,"[1, 6, 8]",3,True,CHO,ester
750,"2-Pentenal, 2-Methyl-",CC/C=C(\C)/C=O,409.65,6,"[1, 6, 8]",3,True,CHO,alkene
751,"2-Butenoic Acid, Ethyl Ester",CCOC(=O)/C=C/C,409.65,6,"[1, 6, 8]",3,True,CHO,ester
752,"Methyl 3,3-Dimethylacrylate",CC(=CC(=O)OC)C,409.65,6,"[1, 6, 8]",3,True,CHO,ester
753,"2,2-Dimethyl-1-Butanol",CCC(C)(C)CO,409.65,6,"[1, 6, 8]",3,True,CHO,alcohol
754,Dimalone,COC(=O)C1C2CC(C1C(=O)OC)C=C2,410.15,11,"[1, 6, 8]",3,True,CHO,ester
755,2-Methylpropyl Propanoate,CCC(=O)OCC(C)C,410.15,7,"[1, 6, 8]",3,True,CHO,ester
756,"Butanoic Acid, 2-Ethyl-, Methyl Ester",CCC(CC)C(=O)OC,410.15,7,"[1, 6, 8]",3,True,CHO,ester
757,1-Isopropoxy-2-Propanol,CC(C)OCC(C)O,410.65,6,"[1, 6, 8]",3,True,CHO,ester
758,1-Pentanol,CCCCCO,411.04999999999995,5,"[1, 6, 8]",3,True,CHO,alcohol
759,6-n-Amyl-m-Cresol,CCCCCC1=C(C=C(C=C1)C)O,411.15,12,"[1, 6, 8]",3,True,CHO,aromatic
760,"1,2:3,4-Diepoxybutane",C1C(O1)C2CO2,411.15,4,"[1, 6, 8]",3,True,CHO,ester
761,"2-Penten-1-Ol, (z)-",CC/C=C\CO,411.15,5,"[1, 6, 8]",3,True,CHO,alkene
762,"2-Penten-1-Ol, (e)-",CC/C=C/CO,411.15,5,"[1, 6, 8]",3,True,CHO,alkene
763,"2,4-Pentanedione",CC(=O)CC(=O)C,411.15,5,"[1, 6, 8]",3,True,CHO,ketone
764,"Ethanone, 1-Cyclobutyl-",CC(=O)C1CCC1,411.15,6,"[1, 6, 8]",3,True,CHO,ketone
765,"1-Pentyn-3-Ol, 3-Ethyl-",CCC(CC)(C#C)O,411.15,7,"[1, 6, 8]",3,True,CHO,alkyne
766,"2,3-Hexanedione, 5-Methyl-",CC(C)CC(=O)C(=O)C,411.15,7,"[1, 6, 8]",3,True,CHO,ketone
767,P-Methoxyphenylacetic Acid,COC1=CC=C(C=C1)CC(=O)O,411.15,9,"[1, 6, 8]",3,True,CHO,carboxylic_acid
768,4-Hexen-3-One,CCC(=O)/C=C/C,411.65,6,"[1, 6, 8]",3,True,CHO,alkene
769,"2,4-Dimethyl-3-Pentanol",CC(C)C(C(C)C)O,411.84999999999997,7,"[1, 6, 8]",3,True,CHO,alcohol
770,"2-Butenoic Acid, 2-Methyl-, Methyl Ester, (e)-",C/C=C(\C)/C(=O)OC,412.15,6,"[1, 6, 8]",3,True,CHO,ester
771,5-Hexen-2-Ol,CC(CCC=C)O,412.15,6,"[1, 6, 8]",3,True,CHO,alkene