,Name,SMILES,Tb,C Atom,Atom,Count Unique Atom,Pass Screen,Atom2,Func. Group
8838,3-ethyloctan-4-ol,CCCCC(C(CC)CC)O,519.7,10,"[1, 6, 8]",3,True,CHO,alcohol
8839,6-methylnonan-2-ol,CCCC(C)CCCC(C)O,519.7,10,"[1, 6, 8]",3,True,CHO,alcohol
8840,7-methylnonan-2-ol,CCC(C)CCCCC(C)O,519.7,10,"[1, 6, 8]",3,True,CHO,alcohol
8841,"4,5-dimethyloctan-1-ol",CCCC(C)C(C)CCCO,519.7,10,"[1, 6, 8]",3,True,CHO,alcohol
8842,"4,6-dimethyloctan-1-ol",CCC(C)CC(C)CCCO,519.7,10,"[1, 6, 8]",3,True,CHO,alcohol
8843,"4,7-dimethyloctan-1-ol",CC(C)CCC(C)CCCO,519.7,10,"[1, 6, 8]",3,True,CHO,alcohol
8844,5-methylnonan-3-ol,CCCCC(C)CC(CC)O,519.7,10,"[1, 6, 8]",3,True,CHO,alcohol
8845,5-methylnonan-4-ol,CCCCC(C)C(CCC)O,519.7,10,"[1, 6, 8]",3,True,CHO,alcohol
8846,5-methylnonan-2-ol,CCCCC(C)CCC(C)O,519.7,10,"[1, 6, 8]",3,True,CHO,alcohol
8847,4-methylnonan-5-ol,CCCCC(C(C)CCC)O,519.7,10,"[1, 6, 8]",3,True,CHO,alcohol
8848,5-methylnonan-1-ol,CCCCC(C)CCCCO,520.14,10,"[1, 6, 8]",3,True,CHO,alcohol
8849,2-ethyloctan-1-ol,CCCCCCC(CC)CO,520.14,10,"[1, 6, 8]",3,True,CHO,alcohol
8850,3-methylnonan-1-ol,CCCCCCC(C)CCO,520.14,10,"[1, 6, 8]",3,True,CHO,alcohol
8851,7-methylnonan-1-ol,CCC(C)CCCCCCO,520.14,10,"[1, 6, 8]",3,True,CHO,alcohol
8852,3-ethyloctan-1-ol,CCCCCC(CC)CCO,520.14,10,"[1, 6, 8]",3,True,CHO,alcohol
8853,"ethyl 3-oxatricyclo[3.2.1.02,4]octane-6-carboxylate",CCOC(=O)C1CC2CC1C3C2O3,520.18,10,"[1, 6, 8]",3,True,CHO,ester
8854,2-pentylcyclopent-2-en-1-one,CCCCCC1=CCCC1=O,520.31,10,"[1, 6, 8]",3,True,CHO,alkene
8855,"2,6-dimethylocta-2,7-dien-1-ol",CC(CCC=C(C)CO)C=C,520.86,10,"[1, 6, 8]",3,True,CHO,alkene
8856,adamantan-1-amine,C1C2CC3CC1CC(C2)(C3)N,520.99,10,"[1, 6, 7]",3,True,CHN,amine
8857,"(E)-3,7-dimethyloct-4-en-3-ol",CCC(C)(/C=C/CC(C)C)O,521.07,10,"[1, 6, 8]",3,True,CHO,alkene
8858,"3,5-diethylphenol",CCC1=CC(=CC(=C1)O)CC,521.15,10,"[1, 6, 8]",3,True,CHO,aromatic
8859,"1,7,7-trimethylbicyclo[2.2.1]heptane-2,5-dione",CC1(C2CC(=O)C1(CC2=O)C)C,521.15,10,"[1, 6, 8]",3,True,CHO,ketone
8860,7-methyl-3-methylideneoct-6-en-1-ol,CC(=CCCC(=C)CCO)C,521.18,10,"[1, 6, 8]",3,True,CHO,alkene
8861,"3,7-dimethyloct-6-en-3-ol",CCC(C)(CCC=C(C)C)O,521.39,10,"[1, 6, 8]",3,True,CHO,alkene
8862,"3,6-dimethyloct-6-en-3-ol",CCC(C)(CCC(=CC)C)O,521.39,10,"[1, 6, 8]",3,True,CHO,alkene
8863,(4-methyl-7-oxabicyclo[4.1.0]heptan-3-yl)methyl acetate,CC1CC2C(O2)CC1COC(=O)C,521.98,10,"[1, 6, 8]",3,True,CHO,ester
8864,"N,N'-dimethyloctane-1,8-diamine",CNCCCCCCCCNC,522.15,10,"[1, 6, 7]",3,True,CHN,amine
8865,"[2,2-dimethyl-3-(2-methylprop-1-enyl)cyclopropyl]methanol",CC(=CC1C(C1(C)C)CO)C,522.26,10,"[1, 6, 8]",3,True,CHO,alkene
8866,"7a-methyl-3,3a,4,5,6,7-hexahydro-1H-inden-2-one",CC12CCCCC1CC(=O)C2,522.75,10,"[1, 6, 8]",3,True,CHO,ketone
8867,2-(2-ethylphenyl)ethanol,CCC1=CC=CC=C1CCO,522.85,10,"[1, 6, 8]",3,True,CHO,aromatic
8868,3-methyl-6-methylideneoct-4-yn-3-ol,CCC(=C)C#CC(C)(CC)O,522.91,10,"[1, 6, 8]",3,True,CHO,alkene
8869,2-(4-ethylphenyl)ethanol,CCC1=CC=C(C=C1)CCO,523.15,10,"[1, 6, 8]",3,True,CHO,aromatic
8870,"1,2-dimethyl-3-prop-1-en-2-ylcyclopentan-1-ol",CC1C(CCC1(C)O)C(=C)C,523.32,10,"[1, 6, 8]",3,True,CHO,alkene
8871,O-decylhydroxylamine,CCCCCCCCCCON,523.35,10,"[1, 6, 7, 8]",4,True,CHON,ester
8872,7-methyl-3-methylideneoct-7-enenitrile,CC(=C)CCCC(=C)CC#N,523.6,10,"[1, 6, 7]",3,True,CHN,alkene
8873,4-methyl-2-propylhex-2-en-1-ol,CCCC(=CC(C)CC)CO,524.18,10,"[1, 6, 8]",3,True,CHO,alkene
8874,(E)-dec-3-en-1-ol,CCCCCC/C=C/CCO,524.74,10,"[1, 6, 8]",3,True,CHO,alkene
8875,(E)-dec-2-en-1-ol,CCCCCCC/C=C/CO,524.74,10,"[1, 6, 8]",3,True,CHO,alkene
8876,(Z)-dec-5-en-1-ol,CCCC/C=C\CCCCO,524.74,10,"[1, 6, 8]",3,True,CHO,alkene
8877,(Z)-dec-4-en-1-ol,CCCCC/C=C\CCCO,524.74,10,"[1, 6, 8]",3,True,CHO,alkene
8878,"4,4,6-trimethyl-2-prop-1-en-2-yl-5,6-dihydro-1,3-oxazine",CC1CC(N=C(O1)C(=C)C)(C)C,524.87,10,"[1, 6, 7, 8]",4,True,CHON,ester
8879,"N-(2,4,4-trimethylpentan-2-yl)acetamide",CC(=O)NC(C)(C)CC(C)(C)C,525.98,10,"[1, 6, 7, 8]",4,True,CHON,amide
8880,"7,12-dioxaspiro[5.6]dodecane",C1CCC2(CC1)OCCCCO2,526.31,10,"[1, 6, 8]",3,True,CHO,ester
8881,2-ethyloctanoic acid,CCCCCCC(CC)C(=O)O,526.65,10,"[1, 6, 8]",3,True,CHO,alcohol
8882,2-methoxy-5-prop-2-enylphenol,COC1=C(C=C(C=C1)CC=C)O,526.65,10,"[1, 6, 8]",3,True,CHO,ester
8883,"3,4,4a,5,6,7,8,8a-octahydro-2H-naphthalen-1-one",C1CCC2C(C1)CCCC2=O,526.78,10,"[1, 6, 8]",3,True,CHO,ketone
8884,"11-azabicyclo[4.4.1]undeca-1,3,5,7,9-pentaene",C1=CC=C2C=CC=CC(=C1)N2,526.88,10,"[1, 6, 7]",3,True,CHN,alkene
8885,2-butylidenecyclohexan-1-one,CCCC=C1CCCCC1=O,527.08,10,"[1, 6, 8]",3,True,CHO,alkene
8886,"1,2,2,3-tetramethylcyclopentane-1-carboxylic acid",CC1CCC(C1(C)C)(C)C(=O)O,527.15,10,"[1, 6, 8]",3,True,CHO,alcohol
8887,"2-ethenyl-2,5-dimethylhex-4-enenitrile",CC(=CCC(C)(C=C)C#N)C,527.97,10,"[1, 6, 7]",3,True,CHN,alkene
8888,2-butylhexanoic acid,CCCCC(CCCC)C(=O)O,528.15,10,"[1, 6, 8]",3,True,CHO,alcohol
8889,2-(4-methoxyphenyl)propanal,CC(C=O)C1=CC=C(C=C1)OC,528.15,10,"[1, 6, 8]",3,True,CHO,ester
8890,"6,6-dimethyl-2-methylidenebicyclo[3.1.1]heptan-3-ol",CC1(C2CC1C(=C)C(C2)O)C,528.39,10,"[1, 6, 8]",3,True,CHO,alkene
8891,"N,N'-dibutylethane-1,2-diamine",CCCCNCCNCCCC,528.74,10,"[1, 6, 7]",3,True,CHN,amine
8892,"N,N'-diethylhexane-1,6-diamine",CCNCCCCCCNCC,528.74,10,"[1, 6, 7]",3,True,CHN,amine
8893,1-piperidin-4-ylpiperidine,C1CCN(CC1)C2CCNCC2,528.89,10,"[1, 6, 7]",3,True,CHN,amine
8894,1-cyclohexylpiperazine,C1CCC(CC1)N2CCNCC2,528.89,10,"[1, 6, 7]",3,True,CHN,amine
8895,"(2E,4E)-deca-2,4-dien-1-ol",CCCCC/C=C/C=C/CO,528.9,10,"[1, 6, 8]",3,True,CHO,alkene
8896,"deca-3,7-dien-1-ol",CCC=CCCC=CCCO,528.9,10,"[1, 6, 8]",3,True,CHO,alkene
8897,4-methylisoquinoline,CC1=CN=CC2=CC=CC=C12,529.15,10,"[1, 6, 7]",3,True,CHN,aromatic
8898,"1-(4-ethyl-3,5-dimethyl-1H-pyrrol-2-yl)ethanone",CCC1=C(NC(=C1C)C(=O)C)C,529.15,10,"[1, 6, 7, 8]",4,True,CHON,aromatic
8899,2-methyl-5-propan-2-ylbicyclo[3.1.0]hexan-2-ol,CC(C)C12CCC(C1C2)(C)O,529.43,10,"[1, 6, 8]",3,True,CHO,alcohol
8900,"2,6,6-trimethylbicyclo[3.1.1]heptan-2-ol",CC1(C2CCC(C1C2)(C)O)C,529.47,10,"[1, 6, 8]",3,True,CHO,alcohol
8901,"3,7,7-trimethylbicyclo[4.1.0]heptan-3-ol",CC1(C2C1CC(CC2)(C)O)C,529.47,10,"[1, 6, 8]",3,True,CHO,alcohol
8902,dec-2-yn-1-ol,CCCCCCCC#CCO,529.58,10,"[1, 6, 8]",3,True,CHO,alkyne
8903,dec-3-yn-1-ol,CCCCCCC#CCCO,529.58,10,"[1, 6, 8]",3,True,CHO,alkyne
8904,dec-5-yn-1-ol,CCCCC#CCCCCO,529.58,10,"[1, 6, 8]",3,True,CHO,alkyne
8905,oxan-2-ylmethyl 2-methylprop-2-enoate,CC(=C)C(=O)OCC1CCCCO1,529.68,10,"[1, 6, 8]",3,True,CHO,ester
8906,2-(tert-butylamino)ethyl 2-methylprop-2-enoate,CC(=C)C(=O)OCCNC(C)(C)C,530.12,10,"[1, 6, 7, 8]",4,True,CHON,ester
8907,5-methylidene-6-prop-1-en-2-ylcyclohex-2-en-1-ol,CC(=C)C1C(C=CCC1=C)O,530.34,10,"[1, 6, 8]",3,True,CHO,alkene
8908,2-methyl-5-propan-2-ylcyclohexan-1-ol,CC1CCC(CC1O)C(C)C,530.35,10,"[1, 6, 8]",3,True,CHO,alcohol
8909,"3,6-dimethyloct-6-en-4-yn-3-ol",CCC(C)(C#CC(=CC)C)O,530.39,10,"[1, 6, 8]",3,True,CHO,alkene
8910,spiro[4.5]dec-9-en-8-one,C1CCC2(C1)CCC(=O)C=C2,530.85,10,"[1, 6, 8]",3,True,CHO,alkene
8911,"(3E)-3,7-dimethylocta-3,7-dienenitrile",CC(=C)CC/C=C(\C)/CC#N,531.08,10,"[1, 6, 7]",3,True,CHN,alkene
8912,"(2E)-3,7-dimethylocta-2,7-dienenitrile",CC(=C)CCC/C(=C/C#N)/C,531.08,10,"[1, 6, 7]",3,True,CHN,alkene
8913,3-methyl-6-propan-2-ylidenecyclohex-2-en-1-one,CC1=CC(=O)C(=C(C)C)CC1,531.1,10,"[1, 6, 8]",3,True,CHO,alkene
8914,2-phenoxybutanoic acid,CCC(C(=O)O)OC1=CC=CC=C1,531.15,10,"[1, 6, 8]",3,True,CHO,carboxylic_acid
8915,8-methylisoquinoline,CC1=C2C=NC=CC2=CC=C1,531.15,10,"[1, 6, 7]",3,True,CHN,aromatic
8916,2-pentylcyclopentan-1-ol,CCCCCC1CCCC1O,531.19,10,"[1, 6, 8]",3,True,CHO,alcohol
8917,"3,3,5,5-tetramethylcyclohexan-1-ol",CC1(CC(CC(C1)(C)C)O)C,531.27,10,"[1, 6, 8]",3,True,CHO,alcohol
8918,4-tert-butylcyclohex-2-en-1-ol,CC(C)(C)C1CCC(C=C1)O,531.39,10,"[1, 6, 8]",3,True,CHO,alkene
8919,1-methyl-4-prop-1-en-2-ylcyclohex-2-en-1-ol,CC(=C)C1CCC(C=C1)(C)O,531.42,10,"[1, 6, 8]",3,True,CHO,alkene
8920,2-(4-methoxyphenyl)-N-methylethanamine,CNCCC1=CC=C(C=C1)OC,531.65,10,"[1, 6, 7, 8]",4,True,CHON,ester
8921,"3,3,6,6-tetramethoxycyclohexa-1,4-diene",COC1(C=CC(C=C1)(OC)OC)OC,531.76,10,"[1, 6, 8]",3,True,CHO,ester
8922,1-(3-methoxyphenyl)propan-2-one,CC(=O)CC1=CC(=CC=C1)OC,532.15,10,"[1, 6, 8]",3,True,CHO,ester
8923,2-tert-butylcyclohexan-1-ol,CC(C)(C)C1CCCCC1O,532.23,10,"[1, 6, 8]",3,True,CHO,alcohol
8924,N-hexylbutanamide,CCCCCCNC(=O)CCC,532.44,10,"[1, 6, 7, 8]",4,True,CHON,amide
8925,"2,2,6-trimethylheptane-3,5-dione",CC(C)C(=O)CC(=O)C(C)(C)C,532.47,10,"[1, 6, 8]",3,True,CHO,ketone
8926,"3-(dimethylamino)-5,5-dimethylcyclohex-2-en-1-one",CC1(CC(=CC(=O)C1)N(C)C)C,532.59,10,"[1, 6, 7, 8]",4,True,CHON,ketone
8927,4-(dipropylamino)butan-1-ol,CCCN(CCC)CCCCO,533.02,10,"[1, 6, 7, 8]",4,True,CHON,alcohol
8928,1-methyl-4-prop-1-en-2-yl-7-oxabicyclo[4.1.0]heptan-2-one,CC(=C)C1CC2C(O2)(C(=O)C1)C,533.05,10,"[1, 6, 8]",3,True,CHO,ester
8929,methyl 4-ethoxybenzoate,CCOC1=CC=C(C=C1)C(=O)OC,533.15,10,"[1, 6, 8]",3,True,CHO,ester
8930,(4-ethenylphenyl) acetate,CC(=O)OC1=CC=C(C=C1)C=C,533.15,10,"[1, 6, 8]",3,True,CHO,ester
8931,"1,1,2,2-tetramethoxycyclohexane",COC1(CCCCC1(OC)OC)OC,533.44,10,"[1, 6, 8]",3,True,CHO,ester
8932,2-methyl-5-pentyloxolan-3-one,CCCCCC1CC(=O)C(O1)C,533.78,10,"[1, 6, 8]",3,True,CHO,ester
8933,"3,7-dimethyloct-6-enenitrile",CC(CCC=C(C)C)CC#N,534.08,10,"[1, 6, 7]",3,True,CHN,alkene
8934,ethyl (2-methoxyphenyl) carbonate,CCOC(=O)OC1=CC=CC=C1OC,534.15,10,"[1, 6, 8]",3,True,CHO,ester
8935,"(10Z)-10-ethylidene-2-oxa-6-azatricyclo[5.3.0.01,3]dec-8-ene",C/C=C\1/C=CC2C13C(O3)CCN2,534.43,10,"[1, 6, 7, 8]",4,True,CHON,ester
8936,3-methylnon-2-enenitrile,CCCCCCC(=CC#N)C,534.52,10,"[1, 6, 7]",3,True,CHN,alkene
8937,(Z)-dec-2-enenitrile,CCCCCCC/C=C\C#N,534.64,10,"[1, 6, 7]",3,True,CHN,alkene
8938,"2,3,5,6-tetramethylaniline",CC1=CC(=C(C(=C1C)N)C)C,534.65,10,"[1, 6, 7]",3,True,CHN,aromatic
8939,"tricyclo[5.2.1.02,6]dec-4-en-8-ol",C1C=CC2C1C3CC2C(C3)O,534.89,10,"[1, 6, 8]",3,True,CHO,alkene
8940,4-butan-2-ylcyclohexan-1-ol,CCC(C)C1CCC(CC1)O,535.02,10,"[1, 6, 8]",3,True,CHO,alcohol
8941,[4-(ethenoxymethyl)cyclohexyl]methanol,C=COCC1CCC(CC1)CO,535.15,10,"[1, 6, 8]",3,True,CHO,ester
8942,"N,N-diethyl-4-methylpiperazine-1-carboxamide",CCN(CC)C(=O)N1CCN(CC1)C,535.27,10,"[1, 6, 7, 8]",4,True,CHON,amide
8943,methyl 9-oxononanoate,COC(=O)CCCCCCCC=O,535.28,10,"[1, 6, 8]",3,True,CHO,ester
8944,2-butylcyclohexan-1-ol,CCCCC1CCCCC1O,535.46,10,"[1, 6, 8]",3,True,CHO,alcohol
8945,"4,4a,5,6,7,8-hexahydro-3H-naphthalen-2-one",C1CCC2=CC(=O)CCC2C1,535.59,10,"[1, 6, 8]",3,True,CHO,alkene
8946,"9-oxatetracyclo[5.4.0.03,10.04,8]undec-5-en-2-one",C1C2C3C=CC4C3OC1C4C2=O,535.68,10,"[1, 6, 8]",3,True,CHO,ester
8947,adamantan-2-ol,C1C2CC3CC1CC(C2)C3O,535.73,10,"[1, 6, 8]",3,True,CHO,alcohol
8948,2-(4-methylidenecyclohexyl)prop-2-en-1-ol,C=C1CCC(CC1)C(=C)CO,535.85,10,"[1, 6, 8]",3,True,CHO,alkene
8949,6-methyl-3-propan-2-yl-7-oxabicyclo[4.1.0]heptan-2-one,CC(C)C1CCC2(C(C1=O)O2)C,536.05,10,"[1, 6, 8]",3,True,CHO,ester
8950,"decane-5,6-dione",CCCCC(=O)C(=O)CCCC,536.14,10,"[1, 6, 8]",3,True,CHO,ketone
8951,"dimethyl cyclohexane-1,3-dicarboxylate",COC(=O)C1CCCC(C1)C(=O)OC,536.2,10,"[1, 6, 8]",3,True,CHO,ester
8952,"1,4-bis(oxiran-2-ylmethyl)piperazine",C1CN(CCN1CC2CO2)CC3CO3,536.34,10,"[1, 6, 7, 8]",4,True,CHON,ester
8953,"ethyl 2,2,4-trimethyl-3-oxopentanoate",CCOC(=O)C(C)(C)C(=O)C(C)C,536.82,10,"[1, 6, 8]",3,True,CHO,ester
8954,1-cyclohexyl-2-methylpropan-2-ol,CC(C)(CC1CCCCC1)O,536.9,10,"[1, 6, 8]",3,True,CHO,alcohol
8955,1-tert-butylcyclohexan-1-ol,CC(C)(C)C1(CCCCC1)O,537.14,10,"[1, 6, 8]",3,True,CHO,alcohol
8956,"ethyl 2-ethyl-5-methyl-2,3-dihydrofuran-4-carboxylate",CCC1CC(=C(O1)C)C(=O)OCC,537.97,10,"[1, 6, 8]",3,True,CHO,ester
8957,bis(ethenyl) hexanedioate,C=COC(=O)CCCCC(=O)OC=C,538.2,10,"[1, 6, 8]",3,True,CHO,ester
8958,1-ethynylcyclooctan-1-ol,C#CC1(CCCCCCC1)O,539.03,10,"[1, 6, 8]",3,True,CHO,alkyne
8959,ethyl 2-(methylamino)benzoate,CCOC(=O)C1=CC=CC=C1NC,539.15,10,"[1, 6, 7, 8]",4,True,CHON,ester
8960,3-methyl-6-propan-2-ylcyclohex-2-en-1-ol,CC1=CC(C(CC1)C(C)C)O,539.16,10,"[1, 6, 8]",3,True,CHO,alkene
8961,2-(oxolan-2-ylmethoxy)oxane,C1CCOC(C1)OCC2CCCO2,539.55,10,"[1, 6, 8]",3,True,CHO,ester
8962,1-cyclohexylbutan-1-ol,CCCC(C1CCCCC1)O,539.69,10,"[1, 6, 8]",3,True,CHO,alcohol
8963,"(1,2,4-trimethylcyclohex-3-en-1-yl)methanol",CC1C=C(CCC1(C)CO)C,539.84,10,"[1, 6, 8]",3,True,CHO,alkene
8964,ethyl 3-methyl-4-oxoheptanoate,CCCC(=O)C(C)CC(=O)OCC,540.05,10,"[1, 6, 8]",3,True,CHO,ester
8965,4-cyclohexylbutan-1-ol,C1CCC(CC1)CCCCO,540.13,10,"[1, 6, 8]",3,True,CHO,alcohol
8966,"3-methyl-6-propan-2-ylbenzene-1,2-diol",CC1=C(C(=C(C=C1)C(C)C)O)O,540.15,10,"[1, 6, 8]",3,True,CHO,aromatic
8967,"2-(4-methylcyclohexa-2,4-dien-1-yl)propan-2-ol",CC1=CCC(C=C1)C(C)(C)O,540.2,10,"[1, 6, 8]",3,True,CHO,alkene
8968,1-butylcyclohexan-1-ol,CCCCC1(CCCCC1)O,540.37,10,"[1, 6, 8]",3,True,CHO,alcohol
8969,hexyl 3-oxobutanoate,CCCCCCOC(=O)CC(=O)C,540.49,10,"[1, 6, 8]",3,True,CHO,ester
8970,pentyl 4-oxopentanoate,CCCCCOC(=O)CCC(=O)C,540.49,10,"[1, 6, 8]",3,True,CHO,ester
8971,butyl 5-oxohexanoate,CCCCOC(=O)CCCC(=O)C,540.49,10,"[1, 6, 8]",3,True,CHO,ester
8972,adamantan-1-ol,C1C2CC3CC1CC(C2)(C3)O,540.64,10,"[1, 6, 8]",3,True,CHO,alcohol
8973,2-(4-methylcyclohex-3-en-1-yl)prop-2-en-1-ol,CC1=CCC(CC1)C(=C)CO,540.83,10,"[1, 6, 8]",3,True,CHO,alkene
8974,dimethyl 2-methyl-5-methylidenehexanedioate,CC(CCC(=C)C(=O)OC)C(=O)OC,540.96,10,"[1, 6, 8]",3,True,CHO,ester
8975,2-methyl-2-[2-[(2-methyloxiran-2-yl)methoxy]ethoxymethyl]oxirane,CC1(CO1)COCCOCC2(CO2)C,541.1,10,"[1, 6, 8]",3,True,CHO,ester
8976,2-(2-phenylethylamino)ethanol,C1=CC=C(C=C1)CCNCCO,541.15,10,"[1, 6, 7, 8]",4,True,CHON,aromatic
8977,"2,6-dimethylquinoxaline",CC1=CC2=NC=C(N=C2C=C1)C,541.15,10,"[1, 6, 7]",3,True,CHN,aromatic
8978,(4-acetyloxy-4-methylpentan-2-yl) acetate,CC(CC(C)(C)OC(=O)C)OC(=O)C,541.17,10,"[1, 6, 8]",3,True,CHO,ester
8979,"N,N'-diethyl-N'-[2-(ethylamino)ethyl]ethane-1,2-diamine",CCNCCN(CC)CCNCC,541.18,10,"[1, 6, 7]",3,True,CHN,amine
8980,2-[bis(2-methylpropyl)amino]acetonitrile,CC(C)CN(CC#N)CC(C)C,542.04,10,"[1, 6, 7]",3,True,CHN,amine
8981,"1-propan-2-yl-2,3,4,6,7,8-hexahydropyrimido[1,2-a]pyrimidine",CC(C)N1CCCN2C1=NCCC2,542.04,10,"[1, 6, 7]",3,True,CHN,amine
8982,3-methylbicyclo[2.2.2]oct-5-ene-2-carbonitrile,CC1C2CCC(C1C#N)C=C2,542.32,10,"[1, 6, 7]",3,True,CHN,alkene
8983,4-prop-2-enoyloxybut-2-enyl prop-2-enoate,C=CC(=O)OCC=CCOC(=O)C=C,542.36,10,"[1, 6, 8]",3,True,CHO,ester
8984,3-acetyl-5-butyloxolan-2-one,CCCCC1CC(C(=O)O1)C(=O)C,542.56,10,"[1, 6, 8]",3,True,CHO,ester
8985,"3-ethoxy-5,5-dimethylcyclohex-2-en-1-one",CCOC1=CC(=O)CC(C1)(C)C,542.57,10,"[1, 6, 8]",3,True,CHO,ester
8986,2-piperidin-3-ylpiperidine,C1CCNC(C1)C2CCCNC2,542.65,10,"[1, 6, 7]",3,True,CHN,amine
8987,"5,5-dimethyl-4-(3-oxobutyl)oxolan-2-one",CC(=O)CCC1CC(=O)OC1(C)C,542.8,10,"[1, 6, 8]",3,True,CHO,ester
8988,4-(dipropylamino)butanenitrile,CCCN(CCC)CCCC#N,542.92,10,"[1, 6, 7]",3,True,CHN,amine
8989,2-octoxyethanol,CCCCCCCCOCCO,543.0,10,"[1, 6, 8]",3,True,CHO,ester
8990,9-(dimethylamino)-9-azabicyclo[3.3.1]nonan-3-one,CN(C)N1C2CCCC1CC(=O)C2,543.12,10,"[1, 6, 7, 8]",4,True,CHON,ketone
8991,"1,8,8-trimethyl-3-oxabicyclo[3.2.1]octane-2,4-dione",CC1(C2CCC1(C(=O)OC2=O)C)C,543.15,10,"[1, 6, 8]",3,True,CHO,ether
8992,2-(4-methylcyclohexen-1-yl)propan-1-ol,CC1CCC(=CC1)C(C)CO,543.83,10,"[1, 6, 8]",3,True,CHO,alkene
8993,2-(4-methylcyclohex-3-en-1-yl)propan-1-ol,CC1=CCC(CC1)C(C)CO,543.83,10,"[1, 6, 8]",3,True,CHO,alkene
8994,(E)-1-cyclohexylbut-2-en-1-ol,C/C=C/C(C1CCCCC1)O,543.85,10,"[1, 6, 8]",3,True,CHO,alkene
8995,1-cyclohexylpyrrolidin-2-one,C1CCC(CC1)N2CCCC2=O,543.89,10,"[1, 6, 7, 8]",4,True,CHON,amide
8996,dipropan-2-yl butanedioate,CC(C)OC(=O)CCC(=O)OC(C)C,543.96,10,"[1, 6, 8]",3,True,CHO,ester
8997,1-methyl-4-propan-2-ylcyclohex-3-en-1-ol,CC(C)C1=CCC(CC1)(C)O,544.07,10,"[1, 6, 8]",3,True,CHO,alkene
8998,(1S)-4-methyl-1-propan-2-ylcyclohex-3-en-1-ol,CC1=CC[C@@](CC1)(C(C)C)O,544.07,10,"[1, 6, 8]",3,True,CHO,alkene
8999,diethyl 3-methylpentanedioate,CCOC(=O)CC(C)CC(=O)OCC,544.4,10,"[1, 6, 8]",3,True,CHO,ester
9000,diethyl 2-methylpentanedioate,CCOC(=O)CCC(C)C(=O)OCC,544.4,10,"[1, 6, 8]",3,True,CHO,ester
9001,ethyl 3-acetyloxyhexanoate,CCCC(CC(=O)OCC)OC(=O)C,544.4,10,"[1, 6, 8]",3,True,CHO,ester
9002,propan-2-yl 2-aminobenzoate,CC(C)OC(=O)C1=CC=CC=C1N,544.6,10,"[1, 6, 7, 8]",4,True,CHON,ester
9003,6-acetyloxyhexyl acetate,CC(=O)OCCCCCCOC(=O)C,544.84,10,"[1, 6, 8]",3,True,CHO,ester
9004,2-methyl-3-phenylpropanoic acid,CC(CC1=CC=CC=C1)C(=O)O,545.15,10,"[1, 6, 8]",3,True,CHO,aromatic
9005,2-cyclopentylidenecyclopentan-1-one,C1CCC(=C2CCCC2=O)C1,545.24,10,"[1, 6, 8]",3,True,CHO,alkene
9006,(E)-4-methyl-1-morpholin-4-ylpent-1-en-3-one,CC(C)C(=O)/C=C/N1CCOCC1,545.33,10,"[1, 6, 7, 8]",4,True,CHON,ester
9007,1-methylazecan-6-one,CN1CCCCC(=O)CCCC1,545.69,10,"[1, 6, 7, 8]",4,True,CHON,ketone
9008,"4-ethyl-2,6-dimethoxyphenol",CCC1=CC(=C(C(=C1)OC)O)OC,546.15,10,"[1, 6, 8]",3,True,CHO,ester
9009,2-propylbenzoic acid,CCCC1=CC=CC=C1C(=O)O,546.15,10,"[1, 6, 8]",3,True,CHO,aromatic
9010,"1,3-dimethyl-3H-indol-2-one",CC1C2=CC=CC=C2N(C1=O)C,546.15,10,"[1, 6, 7, 8]",4,True,CHON,amide
9011,3-(2-methylpropoxy)cyclohex-2-en-1-one,CC(C)COC1=CC(=O)CCC1,546.56,10,"[1, 6, 8]",3,True,CHO,ester
9012,1-methyl-4-propan-2-ylidenecyclohexan-1-ol,CC(=C1CCC(CC1)(C)O)C,546.89,10,"[1, 6, 8]",3,True,CHO,alkene
9013,"(2E)-2-(3,3-dimethylcyclohexylidene)ethanol",CC1(CCC/C(=C\CO)/C1)C,547.01,10,"[1, 6, 8]",3,True,CHO,alkene
9014,6-methyl-3-propan-2-ylidene-7-oxabicyclo[4.1.0]heptan-2-one,CC(=C1CCC2(C(C1=O)O2)C)C,547.68,10,"[1, 6, 8]",3,True,CHO,ester
9015,"(2,2-dimethyl-1,3-dioxolan-4-yl)methyl 2-methylprop-2-enoate",CC(=C)C(=O)OCC1COC(O1)(C)C,547.93,10,"[1, 6, 8]",3,True,CHO,ester
9016,dipropan-2-yl (Z)-but-2-enedioate,CC(C)OC(=O)/C=C\C(=O)OC(C)C,548.12,10,"[1, 6, 8]",3,True,CHO,ester
9017,dipropyl (Z)-but-2-enedioate,CCCOC(=O)/C=C\C(=O)OCCC,549.0,10,"[1, 6, 8]",3,True,CHO,ester
9018,"5-(3,3-dimethyloxiran-2-yl)-3-methylpentan-1-ol",CC(CCC1C(O1)(C)C)CCO,549.4,10,"[1, 6, 8]",3,True,CHO,ester
9019,"(2,6,6-trimethylcyclohexen-1-yl)methanol",CC1=C(C(CCC1)(C)C)CO,549.49,10,"[1, 6, 8]",3,True,CHO,alkene
9020,"(2,4,4-trimethylcyclohexen-1-yl)methanol",CC1=C(CCC(C1)(C)C)CO,549.49,10,"[1, 6, 8]",3,True,CHO,alkene
9021,"3-N,3-N-diethylbenzene-1,3-diamine",CCN(CC)C1=CC=CC(=C1)N,550.15,10,"[1, 6, 7]",3,True,CHN,aromatic
9022,"N'-butylhexane-1,6-diamine",CCCCNCCCCCCN,551.1,10,"[1, 6, 7]",3,True,CHN,amine
9023,"methyl 2-(1,3-benzodioxol-5-yl)acetate",COC(=O)CC1=CC2=C(C=C1)OCO2,551.15,10,"[1, 6, 8]",3,True,CHO,ester
9024,2-methylquinolin-3-amine,CC1=NC2=CC=CC=C2C=C1N,551.15,10,"[1, 6, 7]",3,True,CHN,aromatic
9025,"2,3,4,5,6,7,8,8a-octahydro-1H-naphthalen-4a-ol",C1CCC2(CCCCC2C1)O,551.38,10,"[1, 6, 8]",3,True,CHO,alcohol
9026,N-cyclohexyl-2-methylpropanamide,CC(C)C(=O)NC1CCCCC1,551.55,10,"[1, 6, 7, 8]",4,True,CHON,amide
9027,2-(5-ethenyl-5-methyloxolan-2-yl)propan-2-ol,CC1(CCC(O1)C(C)(C)O)C=C,551.83,10,"[1, 6, 8]",3,True,CHO,ester
9028,N-cyclohexylbutanamide,CCCC(=O)NC1CCCCC1,551.99,10,"[1, 6, 7, 8]",4,True,CHON,amide
9029,3-ethyl-1H-indole,CCC1=CNC2=CC=CC=C21,552.15,10,"[1, 6, 7]",3,True,CHN,aromatic
9030,"3,3,5,5-tetramethyl-4-propan-2-ylidenepyrazole",CC(=C1C(N=NC1(C)C)(C)C)C,552.57,10,"[1, 6, 7]",3,True,CHN,alkene
9031,"(4-propan-2-ylcyclohexa-1,4-dien-1-yl)methanol",CC(C)C1=CCC(=CC1)CO,552.64,10,"[1, 6, 8]",3,True,CHO,alkene
9032,ethyl 2-anilino-2-oxoacetate,CCOC(=O)C(=O)NC1=CC=CC=C1,553.15,10,"[1, 6, 7, 8]",4,True,CHON,ester
9033,dipropan-2-yl (E)-but-2-enedioate,CC(C)OC(=O)/C=C/C(=O)OC(C)C,553.15,10,"[1, 6, 8]",3,True,CHO,ester
9034,diethyl 2-(ethoxymethylidene)propanedioate,CCOC=C(C(=O)OCC)C(=O)OCC,553.2,10,"[1, 6, 8]",3,True,CHO,ester
9035,"N,N'-dimethyl-N'-[2-[methyl-[2-(methylamino)ethyl]amino]ethyl]ethane-1,2-diamine",CNCCN(C)CCN(C)CCNC,553.62,10,"[1, 6, 7]",3,True,CHN,amine
9036,decanamide,CCCCCCCCCC(=O)N,554.8,10,"[1, 6, 7, 8]",4,True,CHON,amide