,Name,SMILES,Tb,C Atom,Atom,Count Unique Atom,Pass Screen,Atom2,Func. Group
7416,ethyl hept-2-ynoate,CCCCC#CC(=O)OCC,466.15,9,"[1, 6, 8]",3,True,CHO,ester
7417,3-ethyl-2-methylhexan-1-ol,CCCC(CC)C(C)CO,466.15,9,"[1, 6, 8]",3,True,CHO,alcohol
7418,2-ethyl-3-methylhexan-1-ol,CCCC(C)C(CC)CO,466.15,9,"[1, 6, 8]",3,True,CHO,alcohol
7419,"2-ethenyl-4,4,6-trimethyl-1,3-dioxane",CC1CC(OC(O1)C=C)(C)C,466.55,9,"[1, 6, 8]",3,True,CHO,ester
7420,"nona-2,4,6-trienal",CCC=CC=CC=CC=O,466.66,9,"[1, 6, 8]",3,True,CHO,alkene
7421,"2-methoxy-1,4-dimethylbenzene",CC1=CC(=C(C=C1)C)OC,467.15,9,"[1, 6, 8]",3,True,CHO,ester
7422,4-butylpiperidine,CCCCC1CCNCC1,467.15,9,"[1, 6, 7]",3,True,CHN,amine
7423,butan-2-yl (E)-2-methylbut-2-enoate,CCC(C)OC(=O)/C(=C/C)/C,467.34,9,"[1, 6, 8]",3,True,CHO,ester
7424,2-methylpropyl 3-methylbut-2-enoate,CC(C)COC(=O)C=C(C)C,467.34,9,"[1, 6, 8]",3,True,CHO,ester
7425,3-methylbut-2-enyl 2-methylpropanoate,CC(C)C(=O)OCC=C(C)C,467.34,9,"[1, 6, 8]",3,True,CHO,ester
7426,oxiran-2-ylmethyl hexanoate,CCCCCC(=O)OCC1CO1,467.35,9,"[1, 6, 8]",3,True,CHO,ester
7427,3-methylbutyl but-2-enoate,CC=CC(=O)OCCC(C)C,467.46,9,"[1, 6, 8]",3,True,CHO,ester
7428,butyl 2-methylbut-2-enoate,CCCCOC(=O)C(=CC)C,467.78,9,"[1, 6, 8]",3,True,CHO,ester
7429,butyl (E)-2-methylbut-2-enoate,CCCCOC(=O)/C(=C/C)/C,467.78,9,"[1, 6, 8]",3,True,CHO,ester
7430,3-methylbut-2-enyl butanoate,CCCC(=O)OCC=C(C)C,467.78,9,"[1, 6, 8]",3,True,CHO,ester
7431,3-methylpent-3-enyl propanoate,CCC(=O)OCCC(=CC)C,467.78,9,"[1, 6, 8]",3,True,CHO,ester
7432,methyl (E)-oct-4-enoate,CCC/C=C/CCC(=O)OC,467.9,9,"[1, 6, 8]",3,True,CHO,ester
7433,methyl (E)-oct-2-enoate,CCCCC/C=C/C(=O)OC,467.9,9,"[1, 6, 8]",3,True,CHO,ester
7434,[(E)-hept-2-enyl] acetate,CCCC/C=C/COC(=O)C,467.9,9,"[1, 6, 8]",3,True,CHO,ester
7435,butyl (E)-pent-3-enoate,CCCCOC(=O)C/C=C/C,467.9,9,"[1, 6, 8]",3,True,CHO,ester
7436,methyl (Z)-oct-4-enoate,CCC/C=C\CCC(=O)OC,467.9,9,"[1, 6, 8]",3,True,CHO,ester
7437,pentyl (E)-but-2-enoate,CCCCCOC(=O)/C=C/C,467.9,9,"[1, 6, 8]",3,True,CHO,ester
7438,methyl (E)-oct-3-enoate,CCCC/C=C/CC(=O)OC,467.9,9,"[1, 6, 8]",3,True,CHO,ester
7439,[(E)-hept-1-enyl] acetate,CCCCC/C=C/OC(=O)C,467.9,9,"[1, 6, 8]",3,True,CHO,ester
7440,[(E)-hex-2-enyl] propanoate,CCC/C=C/COC(=O)CC,467.9,9,"[1, 6, 8]",3,True,CHO,ester
7441,methyl (Z)-oct-3-enoate,CCCC/C=C\CC(=O)OC,467.9,9,"[1, 6, 8]",3,True,CHO,ester
7442,butyl (E)-pent-2-enoate,CCCCOC(=O)/C=C/CC,467.9,9,"[1, 6, 8]",3,True,CHO,ester
7443,3-tert-butylpyridine,CC(C)(C)C1=CN=CC=C1,467.95,9,"[1, 6, 7]",3,True,CHN,aromatic
7444,4-pentylmorpholine,CCCCCN1CCOCC1,468.15,9,"[1, 6, 7, 8]",4,True,CHON,ester
7445,4-(2-methylpropyl)pyridine,CC(C)CC1=CC=NC=C1,468.15,9,"[1, 6, 7]",3,True,CHN,aromatic
7446,2-ethyl-4-methylhexan-1-ol,CCC(C)CC(CC)CO,468.15,9,"[1, 6, 8]",3,True,CHO,alcohol
7447,"2-amino-3,5-dimethylbenzoic acid",CC1=CC(=C(C(=C1)C(=O)O)N)C,468.15,9,"[1, 6, 7, 8]",4,True,CHON,carboxylic_acid
7448,"2,3,6-trimethylcyclohexan-1-ol",CC1CCC(C(C1C)O)C,468.15,9,"[1, 6, 8]",3,True,CHO,alcohol
7449,4-(dimethoxymethyl)cyclohexene,COC(C1CCC=CC1)OC,468.63,9,"[1, 6, 8]",3,True,CHO,ester
7450,"prop-2-enyl (2E,4E)-hexa-2,4-dienoate",C/C=C/C=C/C(=O)OCC=C,468.74,9,"[1, 6, 8]",3,True,CHO,ester
7451,1-(4-methylcyclohexyl)ethanone,CC1CCC(CC1)C(=O)C,469.15,9,"[1, 6, 8]",3,True,CHO,ketone
7452,"1,1-dimethoxy-3-methylidenecyclohexane",COC1(CCCC(=C)C1)OC,469.31,9,"[1, 6, 8]",3,True,CHO,ester
7453,"ethyl N,N-bis(prop-2-enyl)carbamate",CCOC(=O)N(CC=C)CC=C,469.54,9,"[1, 6, 7, 8]",4,True,CHON,ester
7454,2-pentyl-2H-furan-5-one,CCCCCC1C=CC(=O)O1,469.64,9,"[1, 6, 8]",3,True,CHO,ester
7455,3-butylpiperidine,CCCCC1CCCNC1,469.65,9,"[1, 6, 7]",3,True,CHN,amine
7456,3-(3-methylbutyl)oxolan-2-one,CC(C)CCC1CCOC1=O,470.04,9,"[1, 6, 8]",3,True,CHO,ester
7457,2-butylcyclopentan-1-one,CCCCC1CCCC1=O,470.15,9,"[1, 6, 8]",3,True,CHO,ketone
7458,1-ethyl-3-methoxybenzene,CCC1=CC(=CC=C1)OC,470.15,9,"[1, 6, 8]",3,True,CHO,ester
7459,4-tert-butylpiperidine,CC(C)(C)C1CCNCC1,470.39,9,"[1, 6, 7]",3,True,CHN,amine
7460,"2,3,5,6-tetramethylpyridine",CC1=CC(=C(N=C1C)C)C,470.65,9,"[1, 6, 7]",3,True,CHN,aromatic
7461,1-cyclopentylbutan-1-one,CCCC(=O)C1CCCC1,471.15,9,"[1, 6, 8]",3,True,CHO,ketone
7462,"N'-[2-(dimethylamino)ethyl]-N,N,N'-trimethylethane-1,2-diamine",CN(C)CCN(C)CCN(C)C,471.15,9,"[1, 6, 7]",3,True,CHN,amine
7463,"N,N-dipropylpropanamide",CCCN(CCC)C(=O)CC,471.83,9,"[1, 6, 7, 8]",4,True,CHON,amide
7464,N-prop-2-enylcyclohexanamine,C=CCNC1CCCCC1,471.92,9,"[1, 6, 7]",3,True,CHN,alkene
7465,"[(2E,4E)-hexa-2,4-dienyl] propanoate",CCC(=O)OC/C=C/C=C/C,472.06,9,"[1, 6, 8]",3,True,CHO,ester
7466,3-(dimethylamino)propyl 2-methylprop-2-enoate,CC(=C)C(=O)OCCCN(C)C,472.74,9,"[1, 6, 7, 8]",4,True,CHON,ester
7467,"4,9-dioxatetracyclo[5.4.0.03,5.08,10]undecane",C1C2CC3C(C2CC4C1O4)O3,472.77,9,"[1, 6, 8]",3,True,CHO,ester
7468,1-[2-(2-methoxyethoxy)ethoxy]butane,CCCCOCCOCCOC,472.78,9,"[1, 6, 8]",3,True,CHO,ester
7469,3-cyclohex-3-en-1-ylpropanal,C1CC(CC=C1)CCC=O,472.89,9,"[1, 6, 8]",3,True,CHO,alkene
7470,2-[5-(oxiran-2-yl)pentyl]oxirane,C1C(O1)CCCCCC2CO2,472.9,9,"[1, 6, 8]",3,True,CHO,ester
7471,1-cyclohexylpropan-1-ol,CCC(C1CCCCC1)O,473.15,9,"[1, 6, 8]",3,True,CHO,alcohol
7472,2-butoxypyridine,CCCCOC1=CC=CC=N1,473.15,9,"[1, 6, 7, 8]",4,True,CHON,ester
7473,2-cyclohexylpropanal,CC(C=O)C1CCCCC1,473.29,9,"[1, 6, 8]",3,True,CHO,aldehyde
7474,"3,3,5-trimethylazepane",CC1CCNCC(C1)(C)C,473.46,9,"[1, 6, 7]",3,True,CHN,amine
7475,"3,5,5-trimethylazepane",CC1CC(CCNC1)(C)C,473.46,9,"[1, 6, 7]",3,True,CHN,amine
7476,"2-butan-2-yl-4-methyl-1,3-dioxane",CCC(C)C1OCCC(O1)C,473.86,9,"[1, 6, 8]",3,True,CHO,ester
7477,"2-butyl-2,3-dihydropyran-6-one",CCCCC1CC=CC(=O)O1,473.91,9,"[1, 6, 8]",3,True,CHO,ester
7478,2-(2-methylpropoxy)oxane,CC(C)COC1CCCCO1,474.0,9,"[1, 6, 8]",3,True,CHO,ester
7479,2-methylbicyclo[3.2.1]octan-2-ol,CC1(CCC2CCC1C2)O,474.15,9,"[1, 6, 8]",3,True,CHO,alcohol
7480,2-propylcyclohexan-1-ol,CCCC1CCCCC1O,474.15,9,"[1, 6, 8]",3,True,CHO,alcohol
7481,"5-butyl-2-methyl-1,3-dioxane",CCCCC1COC(OC1)C,474.3,9,"[1, 6, 8]",3,True,CHO,ester
7482,"2-butyl-5-methyl-1,3-dioxane",CCCCC1OCC(CO1)C,474.3,9,"[1, 6, 8]",3,True,CHO,ester
7483,2-butoxyoxane,CCCCOC1CCCCO1,474.44,9,"[1, 6, 8]",3,True,CHO,ester
7484,"3,3,4-trimethyloxepan-2-one",CC1CCCOC(=O)C1(C)C,474.59,9,"[1, 6, 8]",3,True,CHO,ester
7485,6-butyloxan-2-one,CCCCC1CCCC(=O)O1,474.75,9,"[1, 6, 8]",3,True,CHO,ester
7486,"1,3-di(propan-2-yloxy)propan-2-ol",CC(C)OCC(COC(C)C)O,474.85,9,"[1, 6, 8]",3,True,CHO,ester
7487,"7-bicyclo[2.2.1]hepta-2,5-dienyl acetate",CC(=O)OC1C2C=CC1C=C2,475.14,9,"[1, 6, 8]",3,True,CHO,ester
7488,"2-hexyl-1,3-dioxolane",CCCCCCC1OCCO1,475.15,9,"[1, 6, 8]",3,True,CHO,ester
7489,"2-[2-(dimethylamino)ethoxymethoxy]-N,N-dimethylethanamine",CN(C)CCOCOCCN(C)C,475.24,9,"[1, 6, 7, 8]",4,True,CHON,ester
7490,"ethyl N,N-di(propan-2-yl)carbamate",CCOC(=O)N(C(C)C)C(C)C,475.3,9,"[1, 6, 7, 8]",4,True,CHON,ester
7491,"4,5,5-trimethylhexan-1-ol",CC(CCCO)C(C)(C)C,475.55,9,"[1, 6, 8]",3,True,CHO,alcohol
7492,cyclopentyl 2-methylprop-2-enoate,CC(=C)C(=O)OC1CCCC1,475.58,9,"[1, 6, 8]",3,True,CHO,ester
7493,phenyl prop-2-enoate,C=CC(=O)OC1=CC=CC=C1,475.65,9,"[1, 6, 8]",3,True,CHO,ester
7494,[(Z)-hex-3-enyl] propanoate,CC/C=C\CCOC(=O)CC,475.65,9,"[1, 6, 8]",3,True,CHO,ester
7495,"3,4-diethyl-2-methyl-1H-pyrrole",CCC1=CNC(=C1CC)C,475.65,9,"[1, 6, 7]",3,True,CHN,aromatic
7496,2-bicyclo[2.2.1]hept-5-enyl acetate,CC(=O)OC1CC2CC1C=C2,475.98,9,"[1, 6, 8]",3,True,CHO,ester
7497,ethyl 3-(diethylamino)propanoate,CCN(CC)CCC(=O)OCC,476.18,9,"[1, 6, 7, 8]",4,True,CHON,ester
7498,"(Z)-1,3,3-triethoxyprop-1-ene",CCO/C=C\C(OCC)OCC,476.5,9,"[1, 6, 8]",3,True,CHO,ester
7499,"3,3-diethylpentane-2,4-dione",CCC(CC)(C(=O)C)C(=O)C,476.65,9,"[1, 6, 8]",3,True,CHO,ketone
7500,methyl bicyclo[2.2.1]heptane-2-carboxylate,COC(=O)C1CC2CCC1C2,476.82,9,"[1, 6, 8]",3,True,CHO,ester
7501,5-methyloctan-2-amine,CCCC(C)CCC(C)N,477.17,9,"[1, 6, 7]",3,True,CHN,amine
7502,nonan-5-amine,CCCCC(CCCC)N,477.61,9,"[1, 6, 7]",3,True,CHN,amine
7503,7-methyloctan-1-amine,CC(C)CCCCCCN,477.61,9,"[1, 6, 7]",3,True,CHN,amine
7504,(E)-1-[1-methoxy-1-[(E)-prop-1-enoxy]ethoxy]prop-1-ene,C/C=C/OC(O/C=C/C)(OC)C,477.87,9,"[1, 6, 8]",3,True,CHO,ester
7505,2-propoxycyclohexan-1-ol,CCCOC1CCCCC1O,478.15,9,"[1, 6, 8]",3,True,CHO,ester
7506,"4-methyl-2-(2-methylprop-1-enyl)-1,3-dioxane",CC1CCOC(O1)C=C(C)C,478.34,9,"[1, 6, 8]",3,True,CHO,ester
7507,(4-methylcyclohexyl) acetate,CC1CCC(CC1)OC(=O)C,478.62,9,"[1, 6, 8]",3,True,CHO,ester
7508,"2-pentyl-1,3-dioxane",CCCCCC1OCCCO1,478.97,9,"[1, 6, 8]",3,True,CHO,ester
7509,"N,2,6-trimethylaniline",CC1=C(C(=CC=C1)C)NC,479.15,9,"[1, 6, 7]",3,True,CHN,aromatic
7510,"ethyl 3,3-diethoxypropanoate",CCOC(CC(=O)OCC)OCC,479.15,9,"[1, 6, 8]",3,True,CHO,ester
7511,1-phenylpropan-1-amine,CCC(C1=CC=CC=C1)N,479.15,9,"[1, 6, 7]",3,True,CHN,aromatic
7512,"N,N-diethyl-2,2-dimethylpropanamide",CCN(CC)C(=O)C(C)(C)C,479.15,9,"[1, 6, 7, 8]",4,True,CHON,amide
7513,2-prop-2-enoxyethyl 2-methylprop-2-enoate,CC(=C)C(=O)OCCOCC=C,479.4,9,"[1, 6, 8]",3,True,CHO,ester
7514,3-ethylheptan-1-ol,CCCCC(CC)CCO,479.65,9,"[1, 6, 8]",3,True,CHO,alcohol
7515,"tert-butyl 2,2-dimethylpropaneperoxoate",CC(C)(C)C(=O)OOC(C)(C)C,479.7,9,"[1, 6, 8]",3,True,CHO,ester
7516,ethyl (E)-3-(diethylamino)prop-2-enoate,CCN(CC)/C=C/C(=O)OCC,480.34,9,"[1, 6, 7, 8]",4,True,CHON,ester
7517,2-propanoyloxypropyl propanoate,CCC(=O)OCC(C)OC(=O)CC,480.65,9,"[1, 6, 8]",3,True,CHO,ester
7518,1-ethoxy-2-methoxybenzene,CCOC1=CC=CC=C1OC,481.15,9,"[1, 6, 8]",3,True,CHO,ester
7519,spiro[3.5]nonan-3-one,C1CCC2(CC1)CCC2=O,481.15,9,"[1, 6, 8]",3,True,CHO,ketone
7520,"3,6,6-trimethylcyclohex-2-en-1-one",CC1=CC(=O)C(CC1)(C)C,481.15,9,"[1, 6, 8]",3,True,CHO,alkene
7521,"tert-butyl 2,5-dihydropyrrole-1-carboxylate",CC(C)(C)OC(=O)N1CC=CC1,481.15,9,"[1, 6, 7, 8]",4,True,CHON,ester
7522,"1,2,3,4,4a,5,6,7,8,8a-decahydroquinoline",C1CCC2C(C1)CCCN2,481.65,9,"[1, 6, 7]",3,True,CHN,amine
7523,methyl bicyclo[2.2.1]heptane-1-carboxylate,COC(=O)C12CCC(C1)CC2,481.73,9,"[1, 6, 8]",3,True,CHO,ester
7524,cyclooctanecarbaldehyde,C1CCCC(CCC1)C=O,482.27,9,"[1, 6, 8]",3,True,CHO,aldehyde
7525,2-methoxybutyl 2-methylprop-2-enoate,CCC(COC(=O)C(=C)C)OC,482.28,9,"[1, 6, 8]",3,True,CHO,ester
7526,2-butoxyethyl prop-2-enoate,CCCCOCCOC(=O)C=C,482.84,9,"[1, 6, 8]",3,True,CHO,ester
7527,"2-methoxy-N,N-dimethylaniline",CN(C)C1=CC=CC=C1OC,483.15,9,"[1, 6, 7, 8]",4,True,CHON,ester
7528,2-isocyanatoethylbenzene,C1=CC=C(C=C1)CCN=C=O,483.15,9,"[1, 6, 7, 8]",4,True,CHON,aromatic
7529,"2-isocyanato-1,4-dimethylbenzene",CC1=CC(=C(C=C1)C)N=C=O,483.15,9,"[1, 6, 7, 8]",4,True,CHON,aromatic
7530,(1-methylcyclohexyl) acetate,CC(=O)OC1(CCCCC1)C,483.53,9,"[1, 6, 8]",3,True,CHO,ester
7531,"5-methyl-2,3-dihydro-1-benzofuran",CC1=CC2=C(C=C1)OCC2,483.65,9,"[1, 6, 8]",3,True,CHO,ester
7532,"2,5-diethylcyclopentan-1-one",CCC1CCC(C1=O)CC,483.95,9,"[1, 6, 8]",3,True,CHO,ketone
7533,"3-butylpentane-2,4-dione",CCCCC(C(=O)C)C(=O)C,484.15,9,"[1, 6, 8]",3,True,CHO,ketone
7534,"3,6-dimethylhept-1-yn-3-ol",CC(C)CCC(C)(C#C)O,484.15,9,"[1, 6, 8]",3,True,CHO,alkyne
7535,"2,2,5,5-tetramethylcyclopentan-1-one",CC1(CCC(C1=O)(C)C)C,484.43,9,"[1, 6, 8]",3,True,CHO,ketone
7536,4-methyloct-1-yn-4-ol,CCCCC(C)(CC#C)O,484.59,9,"[1, 6, 8]",3,True,CHO,alkyne
7537,"methyl bicyclo[2.2.1]hepta-2,5-diene-2-carboxylate",COC(=O)C1=CC2CC1C=C2,484.79,9,"[1, 6, 8]",3,True,CHO,ester
7538,"2-methyl-6,7-dihydro-5H-cyclopenta[b]pyridine",CC1=NC2=C(CCC2)C=C1,485.05,9,"[1, 6, 7]",3,True,CHN,aromatic
7539,"2-methoxy-N,N-bis(2-methoxyethyl)ethanamine",COCCN(CCOC)CCOC,485.22,9,"[1, 6, 7, 8]",4,True,CHON,ester
7540,"3,4,6-trimethylcyclohex-2-en-1-one",CC1CC(C(=O)C=C1C)C,486.15,9,"[1, 6, 8]",3,True,CHO,alkene
7541,"3,3-dimethylbicyclo[2.2.1]heptan-2-one",CC1(C2CCC(C2)C1=O)C,486.66,9,"[1, 6, 8]",3,True,CHO,ketone
7542,"6,6-dimethylbicyclo[2.2.1]heptan-2-one",CC1(CC2CC1C(=O)C2)C,486.66,9,"[1, 6, 8]",3,True,CHO,ketone
7543,tert-butyl pyrrole-1-carboxylate,CC(C)(C)OC(=O)N1C=CC=C1,486.95,9,"[1, 6, 7, 8]",4,True,CHON,ester
7544,1-(1-methylpiperidin-2-yl)propan-2-one,CC(=O)CC1CCCCN1C,487.11,9,"[1, 6, 7, 8]",4,True,CHON,ketone
7545,non-1-yn-3-ol,CCCCCCC(C#C)O,487.38,9,"[1, 6, 8]",3,True,CHO,alkyne
7546,"4,4,6-trimethylcyclohex-2-en-1-one",CC1CC(C=CC1=O)(C)C,487.62,9,"[1, 6, 8]",3,True,CHO,alkene
7547,ethyl 2-cyano-2-ethylbutanoate,CCC(CC)(C#N)C(=O)OCC,487.65,9,"[1, 6, 7, 8]",4,True,CHON,ester
7548,1-(cyclohexen-1-yl)propan-2-one,CC(=O)CC1=CCCCC1,487.75,9,"[1, 6, 8]",3,True,CHO,alkene
7549,ethyl 2-(cyclopenten-1-yl)acetate,CCOC(=O)CC1=CCCC1,487.83,9,"[1, 6, 8]",3,True,CHO,ester
7550,3-(dipropylamino)propan-1-ol,CCCN(CCC)CCCO,488.15,9,"[1, 6, 7, 8]",4,True,CHON,alcohol
7551,"2-ethoxy-4,4,5,5-tetramethyl-1,3-dioxolane",CCOC1OC(C(O1)(C)C)(C)C,488.26,9,"[1, 6, 8]",3,True,CHO,ester
7552,"(E)-3-(diethylamino)-N,N-dimethylprop-2-enamide",CCN(CC)/C=C/C(=O)N(C)C,488.43,9,"[1, 6, 7, 8]",4,True,CHON,amide
7553,"5,6-dimethylidenebicyclo[2.2.1]hept-2-en-7-one",C=C1C2C=CC(C1=C)C2=O,488.57,9,"[1, 6, 8]",3,True,CHO,alkene
7554,tert-butyl pyrrolidine-1-carboxylate,CC(C)(C)OC(=O)N1CCCC1,488.63,9,"[1, 6, 7, 8]",4,True,CHON,ester
7555,"tricyclo[3.3.1.03,7]nonan-2-one",C1C2CC3CC1C(C2)C3=O,488.89,9,"[1, 6, 8]",3,True,CHO,ketone
7556,"2,3-dimethylidenebicyclo[2.2.1]heptan-7-one",C=C1C2CCC(C1=C)C2=O,489.41,9,"[1, 6, 8]",3,True,CHO,alkene
7557,"5,6-dimethylidenebicyclo[2.2.1]heptan-2-one",C=C1C2CC(C1=C)C(=O)C2,489.41,9,"[1, 6, 8]",3,True,CHO,alkene
7558,1-azaspiro[4.5]decane,C1CCC2(CC1)CCCN2,489.54,9,"[1, 6, 7]",3,True,CHN,amine
7559,2-prop-2-enylcyclohexan-1-one,C=CCC1CCCCC1=O,489.57,9,"[1, 6, 8]",3,True,CHO,alkene
7560,"1-N,1-N-dipropylpropane-1,2-diamine",CCCN(CCC)CC(C)N,490.05,9,"[1, 6, 7]",3,True,CHN,amine
7561,2-ethyl-4-methylphenol,CCC1=C(C=CC(=C1)C)O,490.15,9,"[1, 6, 8]",3,True,CHO,aromatic
7562,"3-methyl-1,4-dioxaspiro[4.5]decane",CC1COC2(O1)CCCCC2,490.22,9,"[1, 6, 8]",3,True,CHO,ester
7563,1-cyclohexylidenepropan-2-one,CC(=O)C=C1CCCCC1,490.25,9,"[1, 6, 8]",3,True,CHO,alkene
7564,"2,3,4-trimethylhex-5-en-3-ol",CC(C)C(C)(C(C)C=C)O,490.27,9,"[1, 6, 8]",3,True,CHO,alkene
7565,ethyl 2-cyclopentylideneacetate,CCOC(=O)C=C1CCCC1,490.33,9,"[1, 6, 8]",3,True,CHO,ester
7566,"2,6-dimethylhepta-1,6-dien-4-ol",CC(=C)CC(CC(=C)C)O,490.38,9,"[1, 6, 8]",3,True,CHO,alkene
7567,diethyl 2-methylbutanedioate,CCOC(=O)CC(C)C(=O)OCC,490.65,9,"[1, 6, 8]",3,True,CHO,ester
7568,"2,3,3,4-tetramethylpentan-2-ol",CC(C)C(C)(C)C(C)(C)O,490.8,9,"[1, 6, 8]",3,True,CHO,alcohol
7569,"2,3,4,4-tetramethylpentan-2-ol",CC(C(C)(C)C)C(C)(C)O,490.8,9,"[1, 6, 8]",3,True,CHO,alcohol
7570,"2,6-dimethylhept-6-en-2-ol",CC(=C)CCCC(C)(C)O,491.03,9,"[1, 6, 8]",3,True,CHO,alkene
7571,3-methyloct-1-en-3-ol,CCCCCC(C)(C=C)O,491.15,9,"[1, 6, 8]",3,True,CHO,alkene
7572,4-methyloct-1-en-4-ol,CCCCC(C)(CC=C)O,491.15,9,"[1, 6, 8]",3,True,CHO,alkene
7573,"2,5,5-trimethylhexan-2-ol",CC(C)(C)CCC(C)(C)O,491.24,9,"[1, 6, 8]",3,True,CHO,alcohol
7574,"2,4,4-trimethylhexan-2-ol",CCC(C)(C)CC(C)(C)O,491.24,9,"[1, 6, 8]",3,True,CHO,alcohol
7575,"3-ethyl-2,3-dimethylpentan-2-ol",CCC(C)(CC)C(C)(C)O,491.24,9,"[1, 6, 8]",3,True,CHO,alcohol
7576,"3,5,5-trimethylhexan-3-ol",CCC(C)(CC(C)(C)C)O,491.24,9,"[1, 6, 8]",3,True,CHO,alcohol
7577,ethyl 1-methylpiperidine-3-carboxylate,CCOC(=O)C1CCCN(C1)C,491.46,9,"[1, 6, 7, 8]",4,True,CHON,ester
7578,4-propan-2-ylcyclohex-2-en-1-one,CC(C)C1CCC(=O)C=C1,491.61,9,"[1, 6, 8]",3,True,CHO,alkene
7579,"(2,4-dimethylphenyl)methanamine",CC1=CC(=C(C=C1)CN)C,491.7,9,"[1, 6, 7]",3,True,CHN,aromatic
7580,"methyl 2-azabicyclo[3.2.1]octa-3,6-diene-2-carboxylate",COC(=O)N1C=CC2CC1C=C2,492.25,9,"[1, 6, 7, 8]",4,True,CHON,ester
7581,"2,5,6-trimethylcyclohex-2-en-1-one",CC1CC=C(C(=O)C1C)C,492.36,9,"[1, 6, 8]",3,True,CHO,alkene
7582,2-propan-2-ylcyclohexan-1-one,CC(C)C1CCCCC1=O,492.45,9,"[1, 6, 8]",3,True,CHO,ketone
7583,"(3,4-dimethylphenyl)methanol",CC1=C(C=C(C=C1)CO)C,492.7,9,"[1, 6, 8]",3,True,CHO,aromatic
7584,"2,3,4,5-tetramethylcyclopent-2-en-1-one",CC1C(C(=O)C(=C1C)C)C,493.07,9,"[1, 6, 8]",3,True,CHO,alkene
7585,methyl 2-azabicyclo[3.2.1]oct-3-ene-2-carboxylate,COC(=O)N1C=CC2CCC1C2,493.09,9,"[1, 6, 7, 8]",4,True,CHON,ester
7586,methyl 2-azabicyclo[3.2.1]oct-6-ene-2-carboxylate,COC(=O)N1CCC2CC1C=C2,493.09,9,"[1, 6, 7, 8]",4,True,CHON,ester
7587,2-prop-1-enylphenol,CC=CC1=CC=CC=C1O,493.15,9,"[1, 6, 8]",3,True,CHO,alkene
7588,"1,2,2-trimethylcyclohexan-1-amine",CC1(CCCCC1(C)N)C,493.41,9,"[1, 6, 7]",3,True,CHN,amine
7589,"2,3,4-trimethylhexan-2-ol",CCC(C)C(C)C(C)(C)O,493.59,9,"[1, 6, 8]",3,True,CHO,alcohol
7590,"2,3,5-trimethylhexan-3-ol",CC(C)CC(C)(C(C)C)O,493.59,9,"[1, 6, 8]",3,True,CHO,alcohol
7591,"2,5,5-trimethylhexan-3-ol",CC(C)C(CC(C)(C)C)O,493.59,9,"[1, 6, 8]",3,True,CHO,alcohol
7592,"2,4,5-trimethylhexan-2-ol",CC(C)C(C)CC(C)(C)O,493.59,9,"[1, 6, 8]",3,True,CHO,alcohol
7593,1-azabicyclo[2.2.2]octan-3-yl acetate,CC(=O)OC1CN2CCC1CC2,493.93,9,"[1, 6, 7, 8]",4,True,CHON,ester
7594,methyl 2-azabicyclo[3.2.1]octane-2-carboxylate,COC(=O)N1CCC2CCC1C2,493.93,9,"[1, 6, 7, 8]",4,True,CHON,ester
7595,non-1-en-4-ol,CCCCCC(CC=C)O,493.94,9,"[1, 6, 8]",3,True,CHO,alkene
7596,"3,3,5-trimethylhexan-1-ol",CC(C)CC(C)(C)CCO,494.03,9,"[1, 6, 8]",3,True,CHO,alcohol
7597,"2,2-dimethylheptan-3-ol",CCCCC(C(C)(C)C)O,494.03,9,"[1, 6, 8]",3,True,CHO,alcohol
7598,"3,5-dimethylheptan-3-ol",CCC(C)CC(C)(CC)O,494.03,9,"[1, 6, 8]",3,True,CHO,alcohol
7599,3-ethyl-4-methylhexan-3-ol,CCC(C)C(CC)(CC)O,494.03,9,"[1, 6, 8]",3,True,CHO,alcohol
7600,"3,3-diethylpentan-2-ol",CCC(CC)(CC)C(C)O,494.03,9,"[1, 6, 8]",3,True,CHO,alcohol
7601,"3-ethyl-2,2-dimethylpentan-1-ol",CCC(CC)C(C)(C)CO,494.03,9,"[1, 6, 8]",3,True,CHO,alcohol
7602,4-ethyl-3-methylhexan-3-ol,CCC(CC)C(C)(CC)O,494.03,9,"[1, 6, 8]",3,True,CHO,alcohol
7603,"7-methylidene-1,4-dioxaspiro[4.5]decane",C=C1CCCC2(C1)OCCO2,494.05,9,"[1, 6, 8]",3,True,CHO,ester
7604,3-phenylpropan-1-amine,C1=CC=C(C=C1)CCCN,494.15,9,"[1, 6, 7]",3,True,CHN,aromatic
7605,4-methoxy-1-benzofuran,COC1=CC=CC2=C1C=CO2,494.15,9,"[1, 6, 8]",3,True,CHO,ester
7606,"2-(aminomethyl)-3,3,5-trimethylcyclopentan-1-amine",CC1CC(C(C1N)CN)(C)C,494.15,9,"[1, 6, 7]",3,True,CHN,amine
7607,"1,1,5,5-tetramethoxypentane",COC(CCCC(OC)OC)OC,494.32,9,"[1, 6, 8]",3,True,CHO,ester
7608,non-8-en-1-ol,C=CCCCCCCCO,494.38,9,"[1, 6, 8]",3,True,CHO,alkene
7609,2-methyl-2-propylpentan-1-ol,CCCC(C)(CCC)CO,494.47,9,"[1, 6, 8]",3,True,CHO,alcohol
7610,"6,6-dimethylheptan-1-ol",CC(C)(C)CCCCCO,494.47,9,"[1, 6, 8]",3,True,CHO,alcohol
7611,"N,N-dimethyl-N'-pentylethanimidamide",CCCCCN=C(C)N(C)C,494.52,9,"[1, 6, 7]",3,True,CHN,amine
7612,"N,N-diethyl-N'-propylethanimidamide",CCCN=C(C)N(CC)CC,494.52,9,"[1, 6, 7]",3,True,CHN,amine
7613,methyl 2-cyclohexylideneacetate,COC(=O)C=C1CCCCC1,494.6,9,"[1, 6, 8]",3,True,CHO,ester
7614,"N'-hexyl-N,N-dimethylmethanimidamide",CCCCCCN=CN(C)C,494.64,9,"[1, 6, 7]",3,True,CHN,amine
7615,"1,1-bis(2-methoxyethoxy)propane",CCC(OCCOC)OCCOC,494.76,9,"[1, 6, 8]",3,True,CHO,ester
7616,pentyl 3-oxobutanoate,CCCCCOC(=O)CC(=O)C,495.0,9,"[1, 6, 8]",3,True,CHO,ester
7617,"(E)-1-(3,4-dihydro-2H-pyridin-1-yl)but-2-en-1-one",C/C=C/C(=O)N1CCCC=C1,495.1,9,"[1, 6, 7, 8]",4,True,CHON,amide
7618,4-ethyl-2-methylphenol,CCC1=CC(=C(C=C1)O)C,495.15,9,"[1, 6, 8]",3,True,CHO,aromatic
7619,2-methylpropyl furan-2-carboxylate,CC(C)COC(=O)C1=CC=CO1,495.15,9,"[1, 6, 8]",3,True,CHO,ester
7620,(E)-1-piperidin-1-ylbut-2-en-1-one,C/C=C/C(=O)N1CCCCC1,495.94,9,"[1, 6, 7, 8]",4,True,CHON,amide
7621,ethyl 2-piperidin-1-ylacetate,CCOC(=O)CN1CCCCC1,496.13,9,"[1, 6, 7, 8]",4,True,CHON,ester
7622,"2,4-dimethylheptan-3-ol",CCCC(C)C(C(C)C)O,496.38,9,"[1, 6, 8]",3,True,CHO,alcohol
7623,4-ethyl-2-methylhexan-3-ol,CCC(CC)C(C(C)C)O,496.38,9,"[1, 6, 8]",3,True,CHO,alcohol
7624,oxecan-2-one,C1CCCCOC(=O)CCC1,496.5,9,"[1, 6, 8]",3,True,CHO,ester
7625,"4,6-dimethylheptan-1-ol",CC(C)CC(C)CCCO,496.82,9,"[1, 6, 8]",3,True,CHO,alcohol
7626,3-ethylheptan-2-ol,CCCCC(CC)C(C)O,496.82,9,"[1, 6, 8]",3,True,CHO,alcohol
7627,5-ethylheptan-2-ol,CCC(CC)CCC(C)O,496.82,9,"[1, 6, 8]",3,True,CHO,alcohol