,Name,SMILES,Tb,C Atom,Atom,Count Unique Atom,Pass Screen,Atom2,Func. Group
1242,"3,7-Dimethyl-Octa-1,6-Dien-3-Ol",CC(=CCCC(C)(C=C)O)C,471.15,10,"[1, 6, 8]",3,True,CHO,alkene
1243,"2-Methyl-2,4-Pentanediol",CC(CC(C)(C)O)O,471.15,6,"[1, 6, 8]",3,True,CHO,alcohol
1244,"Benzene, 1-Ethyl-4-Methoxy-",CCC1=CC=C(C=C1)OC,471.15,9,"[1, 6, 8]",3,True,CHO,ester
1245,5-Methyl-Benzofuran,CC1=CC2=C(C=C1)OC=C2,471.15,9,"[1, 6, 8]",3,True,CHO,aromatic
1246,"Ethene, 1,1'-(oxybis(2,1-Ethanediyloxy))bis-",C=COCCOCCOC=C,471.65,8,"[1, 6, 8]",3,True,CHO,ester
1247,"Butanoic Acid, 2-Ethyl-3-Oxo-, Ethyl Ester",CCC(C(=O)C)C(=O)OCC,471.15,8,"[1, 6, 8]",3,True,CHO,ester
1248,Tiglic Acid,C/C=C(\C)/C(=O)O,471.65,5,"[1, 6, 8]",3,True,CHO,alkene
1249,"2-Furancarboxylic Acid, 1-Methylethyl Ester",CC(C)OC(=O)C1=CC=CO1,471.65,8,"[1, 6, 8]",3,True,CHO,ester
1250,"Formic Acid, Octyl Ester",CCCCCCCCOC=O,471.95,9,"[1, 6, 8]",3,True,CHO,ester
1251,3-Ethyl-Octan-3-Ol,CCCCCC(CC)(CC)O,472.15,10,"[1, 6, 8]",3,True,CHO,alcohol
1252,"2,4-Pentanediol",CC(CC(C)O)O,472.15,5,"[1, 6, 8]",3,True,CHO,alcohol
1253,"3-Pentenoic Acid, 2-Methyl-",CC=CC(C)C(=O)O,472.15,6,"[1, 6, 8]",3,True,CHO,alkene
1254,"3,5-Dimethoxyphenol",COC1=CC(=CC(=C1)O)OC,472.15,8,"[1, 6, 8]",3,True,CHO,ester
1255,"2,4-Pentanedione, 3-(2-Propenyl)-",CC(=O)C(CC=C)C(=O)C,472.15,8,"[1, 6, 8]",3,True,CHO,alkene
1256,"Acetic Acid, Diethoxy-, Ethyl Ester",CCOC(C(=O)OCC)OCC,472.15,8,"[1, 6, 8]",3,True,CHO,ester
1257,"Benzaldehyde, 3-Methyl-",CC1=CC(=CC=C1)C=O,472.15,8,"[1, 6, 8]",3,True,CHO,aromatic
1258,"Benzoic Acid, Methyl Ester",COC(=O)C1=CC=CC=C1,472.15,8,"[1, 6, 8]",3,True,CHO,ester
1259,"2,3-Dimethylanisole",CC1=C(C(=CC=C1)OC)C,472.15,9,"[1, 6, 8]",3,True,CHO,ester
1260,Acetaldehyde,CC=O,293.25,2,"[1, 6, 8]",3,True,CHO,aldehyde
1261,Pentyloxybenzene,CCCCCOC1=CC=CC=C1,473.15,11,"[1, 6, 8]",3,True,CHO,ester
1262,"1,3-Butanediol, 2-Methyl-",CC(CO)C(C)O,473.15,5,"[1, 6, 8]",3,True,CHO,alcohol
1263,Diethyl Malonate,CCOC(=O)CC(=O)OCC,473.15,7,"[1, 6, 8]",3,True,CHO,ester
1264,Butyric Anhydride,CCCC(=O)OC(=O)CCC,473.15,8,"[1, 6, 8]",3,True,CHO,ether
1265,"Ethanol, 2,2'-Oxybis-, Diacetate",CC(=O)OCCOCCOC(=O)C,473.15,8,"[1, 6, 8]",3,True,CHO,ester
1266,2-Methylbenzaldehyde,CC1=CC=CC=C1C=O,473.15,8,"[1, 6, 8]",3,True,CHO,aromatic
1267,4-Methylpentanoic Acid,CC(C)CCC(=O)O,473.65,6,"[1, 6, 8]",3,True,CHO,alcohol
1268,"2-Cyclohexen-1-One, 3-Methyl-",CC1=CC(=O)CCC1,474.15,7,"[1, 6, 8]",3,True,CHO,alkene
1269,"Propanedioic Acid, Methyl-, Diethyl Ester",CCOC(=O)C(C)C(=O)OCC,474.15,8,"[1, 6, 8]",3,True,CHO,ester
1270,"Butanoic Acid, 2-Acetyl-3-Methyl-, Ethyl Ester",CCOC(=O)C(C(C)C)C(=O)C,474.15,9,"[1, 6, 8]",3,True,CHO,ester
1271,"2,6-Dimethylphenol",CC1=C(C(=CC=C1)C)O,474.15,8,"[1, 6, 8]",3,True,CHO,aromatic
1272,"Ethanone, 1-(1-Cyclohexen-1-Yl)-",CC(=O)C1=CCCCC1,474.65,8,"[1, 6, 8]",3,True,CHO,alkene
1273,P-Cresol,CC1=CC=C(C=C1)O,475.04999999999995,7,"[1, 6, 8]",3,True,CHO,aromatic
1274,Maleic Anhydride,C1=CC(=O)OC1=O,475.15,4,"[1, 6, 8]",3,True,CHO,alkene
1275,Methyl Maleate,COC(=O)/C=C\C(=O)OC,475.15,6,"[1, 6, 8]",3,True,CHO,ester
1276,Acetophenone,CC(=O)C1=CC=CC=C1,475.15,8,"[1, 6, 8]",3,True,CHO,aromatic
1277,"4-Methoxy-1,2-Dimethyl-Benzene",CC1=C(C=C(C=C1)OC)C,475.15,9,"[1, 6, 8]",3,True,CHO,ester
1278,"3-Octanol, 3,6-Dimethyl-",CCC(C)CCC(C)(CC)O,475.34999999999997,10,"[1, 6, 8]",3,True,CHO,alcohol
1279,M-Cresol,CC1=CC(=CC=C1)O,475.34999999999997,7,"[1, 6, 8]",3,True,CHO,aromatic
1280,"Propanoic Acid, 2-Hydroxy-, 3-Methylbutyl Ester",CC(C)CCOC(=O)C(C)O,475.54999999999995,8,"[1, 6, 8]",3,True,CHO,ester
1281,"2,4-Dihydroxy-2-Methylbutane",CC(C)(CCO)O,475.65,5,"[1, 6, 8]",3,True,CHO,alcohol
1282,"Bis(2,3-Epoxycyclopentyl)ether",C1CC(C2C1O2)OC3CCC4C3O4,476.15,10,"[1, 6, 8]",3,True,CHO,ester
1283,3-Decanone,CCCCCCCC(=O)CC,476.15,10,"[1, 6, 8]",3,True,CHO,ketone
1284,2-Butynoic Acid,CC#CC(=O)O,476.15,4,"[1, 6, 8]",3,True,CHO,alkyne
1285,5-Hexenoic Acid,C=CCCCC(=O)O,476.15,6,"[1, 6, 8]",3,True,CHO,alkene
1286,"2-Butanone, 4-(2-Furanyl)-",CC(=O)CCC1=CC=CO1,476.15,8,"[1, 6, 8]",3,True,CHO,aromatic
1287,"Formic Acid, Phenylmethyl Ester",C1=CC=C(C=C1)COC=O,476.15,8,"[1, 6, 8]",3,True,CHO,ester
1288,"1,2-Dibutoxyethane",CCCCOCCOCCCC,476.45,10,"[1, 6, 8]",3,True,CHO,ester
1289,Methoxyacetic Acid,COCC(=O)O,476.65,3,"[1, 6, 8]",3,True,CHO,carboxylic_acid
1290,"Benzeneacetaldehyde, .alpha.-Methyl-",CC(C=O)C1=CC=CC=C1,476.65,9,"[1, 6, 8]",3,True,CHO,aromatic
1291,"Pentanoic Acid, Pentyl Ester",CCCCCOC(=O)CCCC,476.84999999999997,10,"[1, 6, 8]",3,True,CHO,ester
1292,"Propanoic Acid, 2-Methyl-, Cyclohexyl Ester",CC(C)C(=O)OC1CCCCC1,477.15,10,"[1, 6, 8]",3,True,CHO,ester
1293,Gamma-Butyrolactone,C1CC(=O)OC1,477.15,4,"[1, 6, 8]",3,True,CHO,ester
1294,P-Tolualdehyde,CC1=CC=C(C=C1)C=O,477.15,8,"[1, 6, 8]",3,True,CHO,aromatic
1295,"1,2-Dimethoxy-3-Methyl-Benzene",CC1=C(C(=CC=C1)OC)OC,477.15,9,"[1, 6, 8]",3,True,CHO,ester
1296,O-Ethylphenol,CCC1=CC=CC=C1O,477.65,8,"[1, 6, 8]",3,True,CHO,aromatic
1297,2-Methoxyphenol,COC1=CC=CC=C1O,478.15,7,"[1, 6, 8]",3,True,CHO,ester
1298,Alpha-Methylbenzyl Alcohol,CC(C1=CC=CC=C1)O,478.15,8,"[1, 6, 8]",3,True,CHO,aromatic
1299,"2,5-Dimethyl-3-Hexyne-2,5-Diol",CC(C)(C#CC(C)(C)O)O,478.15,8,"[1, 6, 8]",3,True,CHO,alkyne
1300,"Benzene, 1-Ethenyl-4-Methoxy-",COC1=CC=C(C=C1)C=C,478.15,9,"[1, 6, 8]",3,True,CHO,ester
1301,Hexanoic Acid,CCCCCC(=O)O,478.34999999999997,6,"[1, 6, 8]",3,True,CHO,alcohol
1302,Benzyl Alcohol,C1=CC=C(C=C1)CO,478.45,7,"[1, 6, 8]",3,True,CHO,aromatic
1303,"2-Furanmethanol, Tetrahydro-, Propanoate",CCC(=O)OCC1CCCO1,478.65,8,"[1, 6, 8]",3,True,CHO,ester
1304,Ethyl Levulinate,CCOC(=O)CCC(=O)C,478.95,7,"[1, 6, 8]",3,True,CHO,ester
1305,6-Phenylcaproic Acid,C1=CC=C(C=C1)CCCCCC(=O)O,479.15,12,"[1, 6, 8]",3,True,CHO,aromatic
1306,"Pentane-1,2-Diol",CCCC(CO)O,479.15,5,"[1, 6, 8]",3,True,CHO,alcohol
1307,"1,2-Dimethoxybenzene",COC1=CC=CC=C1OC,479.15,8,"[1, 6, 8]",3,True,CHO,ester
1308,4-Decanone,CCCCCCC(=O)CCC,479.65,10,"[1, 6, 8]",3,True,CHO,ketone
1309,"Acetic Acid, Ethoxy-",CCOCC(=O)O,479.65,4,"[1, 6, 8]",3,True,CHO,carboxylic_acid
1310,"Butanoic Acid, 2-Ethyl-2-Methyl-",CCC(C)(CC)C(=O)O,480.15,7,"[1, 6, 8]",3,True,CHO,alcohol
1311,"1,3-Butanediol",CC(CCO)O,480.65,4,"[1, 6, 8]",3,True,CHO,alcohol
1312,2h-Pyran-2-One,C1=CC(=O)OC=C1,480.65,5,"[1, 6, 8]",3,True,CHO,aromatic
1313,"2-Furancarboxylic Acid, 2-Propenyl Ester",C=CCOC(=O)C1=CC=CO1,480.65,8,"[1, 6, 8]",3,True,CHO,ester
1314,N-Butyl Hexanoate,CCCCCC(=O)OCCCC,481.15,10,"[1, 6, 8]",3,True,CHO,ester
1315,Heptanoic Acid Propyl Ester,CCCCCCC(=O)OCCC,481.15,10,"[1, 6, 8]",3,True,CHO,ester
1316,"Butanoic Acid, Hexyl Ester",CCCCCCOC(=O)CCC,481.15,10,"[1, 6, 8]",3,True,CHO,ester
1317,"Heptanoic Acid, 2-Methylpropyl Ester",CCCCCCC(=O)OCC(C)C,481.15,11,"[1, 6, 8]",3,True,CHO,ester
1318,"1,3-Propanediol, 2,2-Dimethyl-",CC(C)(CO)CO,481.15,5,"[1, 6, 8]",3,True,CHO,alcohol
1319,3-Hexenoic Acid,CC/C=C/CC(=O)O,481.15,6,"[1, 6, 8]",3,True,CHO,alkene
1320,"1,6-Hexanediol",C(CCCO)CCO,481.15,6,"[1, 6, 8]",3,True,CHO,alcohol
1321,"1,3-Butanediol, 2,2-Dimethyl-",CC(C(C)(C)CO)O,481.15,6,"[1, 6, 8]",3,True,CHO,alcohol
1322,"Butanedioic Acid, Methylene-, Dimethyl Ester",COC(=O)CC(=C)C(=O)OC,481.15,7,"[1, 6, 8]",3,True,CHO,ester
1323,Cyclohexaneethanol,C1CCC(CC1)CCO,481.15,8,"[1, 6, 8]",3,True,CHO,alcohol
1324,"Ethanol, 2-(hexyloxy)-",CCCCCCOCCO,481.15,8,"[1, 6, 8]",3,True,CHO,ester
1325,O-Tolylacetate,CC1=CC=CC=C1OC(=O)C,481.15,9,"[1, 6, 8]",3,True,CHO,ester
1326,"4-Pentenoic Acid, 2-Acetyl-, Ethyl Ester",CCOC(=O)C(CC=C)C(=O)C,481.15,9,"[1, 6, 8]",3,True,CHO,ester
1327,"Propanedioic Acid, Ethyl-, Diethyl Ester",CCC(C(=O)OCC)C(=O)OCC,481.15,9,"[1, 6, 8]",3,True,CHO,ester
1328,"Butanedioic Acid, Ethyl Methyl Ester",CCOC(=O)CCC(=O)OC,481.34999999999997,7,"[1, 6, 8]",3,True,CHO,ester
1329,"Cyclohexanol, 1-Methyl-4-(1-Methylethyl)-",CC(C)C1CCC(CC1)(C)O,481.65,10,"[1, 6, 8]",3,True,CHO,alcohol
1330,N-Decanal,CCCCCCCCCC=O,481.65,10,"[1, 6, 8]",3,True,CHO,aldehyde
1331,Ethyl Octanoate,CCCCCCCC(=O)OCC,481.65,10,"[1, 6, 8]",3,True,CHO,ester
1332,"2-Cyclohexen-1-One, 3,5-Dimethyl-",CC1CC(=CC(=O)C1)C,481.65,8,"[1, 6, 8]",3,True,CHO,alkene
1333,Camphor,CC1(C2CCC1(C(=O)C2)C)C,482.15,10,"[1, 6, 8]",3,True,CHO,ketone
1334,"3-Cyclohexen-1-Ol, 4-Methyl-1-(1-Methylethyl)-",CC1=CCC(CC1)(C(C)C)O,482.15,10,"[1, 6, 8]",3,True,CHO,alkene
1335,5-Hydroxy-2-Pentanone,CC(=O)CCCO,482.15,5,"[1, 6, 8]",3,True,CHO,alcohol
1336,"2(5h)-Furanone, 5-Methyl-",CC1C=CC(=O)O1,482.15,5,"[1, 6, 8]",3,True,CHO,ester
1337,2-Methylhexanedioic Acid,CC(CCCC(=O)O)C(=O)O,482.15,7,"[1, 6, 8]",3,True,CHO,alcohol
1338,4-Oxo-Pentanoic Acid Isopropyl Ester,CC(C)OC(=O)CCC(=O)C,482.45,8,"[1, 6, 8]",3,True,CHO,ester
1339,"1,3-Propanediol, Diacetate",CC(=O)OCCCOC(=O)C,482.65,7,"[1, 6, 8]",3,True,CHO,ester
1340,1-Ethoxy-4-Ethylbenzene,CCC1=CC=C(C=C1)OCC,483.15,10,"[1, 6, 8]",3,True,CHO,ester
1341,Butyl Phenyl Ether,CCCCOC1=CC=CC=C1,483.15,10,"[1, 6, 8]",3,True,CHO,ester
1342,Borneol,CC1(C2CCC1(C(C2)O)C)C,483.15,10,"[1, 6, 8]",3,True,CHO,alcohol
1343,Beta-Terpineol,CC(=C)C1CCC(CC1)(C)O,483.15,10,"[1, 6, 8]",3,True,CHO,alkene
1344,2-Decanone,CCCCCCCCC(=O)C,483.15,10,"[1, 6, 8]",3,True,CHO,ketone
1345,"Acetic Acid, Octyl Ester",CCCCCCCCOC(=O)C,483.15,10,"[1, 6, 8]",3,True,CHO,ester
1346,"Propanoic Acid, Heptyl Ester",CCCCCCCOC(=O)CC,483.15,10,"[1, 6, 8]",3,True,CHO,ester
1347,"Acetic Acid, Nonyl Ester",CCCCCCCCCOC(=O)C,483.15,11,"[1, 6, 8]",3,True,CHO,ester
1348,"Furan, 2,5-Bis(1,1-Dimethylethyl)-",CC(C)(C)C1=CC=C(O1)C(C)(C)C,483.15,12,"[1, 6, 8]",3,True,CHO,aromatic
1349,"Propanedioic Acid, Oxo-, Diethyl Ester",CCOC(=O)C(=O)C(=O)OCC,483.15,7,"[1, 6, 8]",3,True,CHO,ester
1350,2-Acetyl-3-Oxo-Butyric Acid Ethyl Ester,CCOC(=O)C(C(=O)C)C(=O)C,483.15,8,"[1, 6, 8]",3,True,CHO,ester
1351,4-Decanol,CCCCCCC(CCC)O,483.65,10,"[1, 6, 8]",3,True,CHO,alcohol
1352,"2,4-Dimethylphenol",CC1=CC(=C(C=C1)O)C,484.04999999999995,8,"[1, 6, 8]",3,True,CHO,aromatic
1353,Propyl Benzoate,CCCOC(=O)C1=CC=CC=C1,484.15,10,"[1, 6, 8]",3,True,CHO,ester
1354,"Cyclohexaneacetic Acid, Ethyl Ester",CCOC(=O)CC1CCCCC1,484.15,10,"[1, 6, 8]",3,True,CHO,ester
1355,Salicylic Acid,C1=CC=C(C(=C1)C(=O)O)O,484.15,7,"[1, 6, 8]",3,True,CHO,carboxylic_acid
1356,Oxalic Acid Dipropyl Ester,CCCOC(=O)C(=O)OCCC,484.15,8,"[1, 6, 8]",3,True,CHO,ester
1357,"1,2-Ethanediol, Dipropanoate",CCC(=O)OCCOC(=O)CC,484.15,8,"[1, 6, 8]",3,True,CHO,ester
1358,"Propanoic Acid, Phenyl Ester",CCC(=O)OC1=CC=CC=C1,484.15,9,"[1, 6, 8]",3,True,CHO,ester
1359,"2,5-Dimethylphenol",CC1=CC(=C(C=C1)C)O,484.25,8,"[1, 6, 8]",3,True,CHO,aromatic
1360,"Benzene, 1-Methoxy-4-Propyl-",CCCC1=CC=C(C=C1)OC,484.65,10,"[1, 6, 8]",3,True,CHO,ester
1361,"2,4-Pentanediol, 3-Methyl-",CC(C(C)O)C(C)O,484.65,6,"[1, 6, 8]",3,True,CHO,alcohol
1362,"Benzene, (2-Methoxyethenyl)-",COC=CC1=CC=CC=C1,484.65,9,"[1, 6, 8]",3,True,CHO,ester
1363,Menthol,CC1CCC(C(C1)O)C(C)C,485.15,10,"[1, 6, 8]",3,True,CHO,alcohol
1364,Cyclopentanecarboxylic Acid,C1CCC(C1)C(=O)O,485.15,6,"[1, 6, 8]",3,True,CHO,alcohol
1365,Ethyl Benzoate,CCOC(=O)C1=CC=CC=C1,485.15,9,"[1, 6, 8]",3,True,CHO,ester
1366,"2-Propanol, 1-(1-Methyl-2-Propoxyethoxy)-",CCCOCC(C)OCC(C)O,485.15,9,"[1, 6, 8]",3,True,CHO,ester
1367,"3,7-Dimethyloctan-1-Ol",CC(C)CCCC(C)CCO,485.65,10,"[1, 6, 8]",3,True,CHO,alcohol
1368,4h-Pyran-4-One,C1=COC=CC1=O,485.65,5,"[1, 6, 8]",3,True,CHO,aromatic
1369,P-Tolylacetate,CC1=CC=C(C=C1)OC(=O)C,485.65,9,"[1, 6, 8]",3,True,CHO,ester
1370,P-Dimethoxybenzene,COC1=CC=C(C=C1)OC,485.75,8,"[1, 6, 8]",3,True,CHO,ester
1371,"Butanoic Acid, Cyclohexyl Ester",CCCC(=O)OC1CCCCC1,486.15,10,"[1, 6, 8]",3,True,CHO,ester
1372,Benzyl Acetate,CC(=O)OCC1=CC=CC=C1,486.15,9,"[1, 6, 8]",3,True,CHO,ester
1373,1-Nonanol,CCCCCCCCCO,486.45,9,"[1, 6, 8]",3,True,CHO,alcohol
1374,Methyl Nonanoate,CCCCCCCCC(=O)OC,486.65,10,"[1, 6, 8]",3,True,CHO,ester
1375,2-Ethylhexyl Acrylate,CCCCC(CC)COC(=O)C=C,486.65,11,"[1, 6, 8]",3,True,CHO,ester
1376,"2,5-Furandione, 3-Methyl-",CC1=CC(=O)OC1=O,486.65,5,"[1, 6, 8]",3,True,CHO,alkene
1377,O-Isopropylphenol,CC(C)C1=CC=CC=C1O,486.65,9,"[1, 6, 8]",3,True,CHO,aromatic
1378,"2-Pentenoic Acid, 2-Methyl-, (e)-",CC/C=C(\C)/C(=O)O,487.15,6,"[1, 6, 8]",3,True,CHO,alkene
1379,"2,4-Dioxo-Pentanoic Acid Ethyl Ester",CCOC(=O)C(=O)CC(=O)C,487.15,7,"[1, 6, 8]",3,True,CHO,ester
1380,"Pentanedioic Acid, Dimethyl Ester",COC(=O)CCCC(=O)OC,487.15,7,"[1, 6, 8]",3,True,CHO,ester
1381,"2-Butenedioic Acid (e)-, Diethyl Ester",CCOC(=O)/C=C/C(=O)OCC,487.15,8,"[1, 6, 8]",3,True,CHO,ester
1382,"2,5-Hexanediol, 2,5-Dimethyl-",CC(C)(CCC(C)(C)O)O,487.15,8,"[1, 6, 8]",3,True,CHO,alcohol
1383,"Ethanone, 1-(2-Methylphenyl)-",CC1=CC=CC=C1C(=O)C,487.15,9,"[1, 6, 8]",3,True,CHO,aromatic
1384,"1,3-Propanediol",C(CO)CO,487.54999999999995,3,"[1, 6, 8]",3,True,CHO,alcohol
1385,"Benzeneethanol, .alpha.,.alpha.-Dimethyl-",CC(C)(CC1=CC=CC=C1)O,488.15,10,"[1, 6, 8]",3,True,CHO,aromatic
1386,"1,2-Propanediol, 3-(2-Methoxyphenoxy)-",COC1=CC=CC=C1OCC(CO)O,488.15,10,"[1, 6, 8]",3,True,CHO,ester
1387,"Butanoic Acid, 3-Methyl-, Anhydride",CC(C)CC(=O)OC(=O)CC(C)C,488.15,10,"[1, 6, 8]",3,True,CHO,ether
1388,Di(trimethylolpropane),CCC(CO)(CO)COCC(CC)(CO)CO,488.15,12,"[1, 6, 8]",3,True,CHO,ester
1389,E-Caprolactone,C1CCC(=O)OCC1,488.15,6,"[1, 6, 8]",3,True,CHO,ester
1390,"O-Toluic Acid, Methyl Ester",CC1=CC=CC=C1C(=O)OC,488.15,9,"[1, 6, 8]",3,True,CHO,ester
1391,Isophorone,CC1=CC(=O)CC(C1)(C)C,488.34999999999997,9,"[1, 6, 8]",3,True,CHO,alkene
1392,"Benzene, 1-Methoxy-4-(2-Propenyl)-",COC1=CC=C(C=C1)CC=C,488.65,10,"[1, 6, 8]",3,True,CHO,ester
1393,Cyclohexanecarboxylic Acid Propyl Ester,CCCOC(=O)C1CCCCC1,488.65,10,"[1, 6, 8]",3,True,CHO,ester
1394,"2(3h)-Furanone, 5-Ethyldihydro-",CCC1CCC(=O)O1,488.65,6,"[1, 6, 8]",3,True,CHO,ester
1395,M-Methylbenzyl Alcohol,CC1=CC(=CC=C1)CO,488.65,8,"[1, 6, 8]",3,True,CHO,aromatic
1396,"Benzofuran, 4,7-Dimethyl-",CC1=C2C=COC2=C(C=C1)C,489.15,10,"[1, 6, 8]",3,True,CHO,aromatic
1397,"Benzoic Acid, 1-Methylethyl Ester",CC(C)OC(=O)C1=CC=CC=C1,489.15,10,"[1, 6, 8]",3,True,CHO,ester
1398,"Butanoic Acid, 2,2-Diethyl-3-Oxo-, Ethyl Ester",CCC(CC)(C(=O)C)C(=O)OCC,489.15,10,"[1, 6, 8]",3,True,CHO,ester
1399,5-Methylhexanoic Acid,CC(C)CCCC(=O)O,489.15,7,"[1, 6, 8]",3,True,CHO,alcohol
1400,"2,5,8,11-Tetraoxadodecane",COCCOCCOCCOC,489.15,8,"[1, 6, 8]",3,True,CHO,ester
1401,"Cyclopropane-1,1-Dicarboxylic Acid Diethyl Ester",CCOC(=O)C1(CC1)C(=O)OCC,489.15,9,"[1, 6, 8]",3,True,CHO,ester
1402,2-Hexenoic Acid,CCC/C=C/C(=O)O,489.65,6,"[1, 6, 8]",3,True,CHO,alkene
1403,1-Phenyl-2-Propanone,CC(=O)CC1=CC=CC=C1,489.65,9,"[1, 6, 8]",3,True,CHO,aromatic
1404,"Phenylacetic Acid, Methyl Ester",COC(=O)CC1=CC=CC=C1,489.65,9,"[1, 6, 8]",3,True,CHO,ester
1405,"2,3-Dimethylphenol",CC1=C(C(=CC=C1)O)C,490.04999999999995,8,"[1, 6, 8]",3,True,CHO,aromatic
1406,Hexaethylene Glycol,C(COCCOCCOCCOCCOCCO)O,490.15,12,"[1, 6, 8]",3,True,CHO,ester
1407,"2-Pentenoic Acid, 4-Methyl-",CC(C)/C=C/C(=O)O,490.15,6,"[1, 6, 8]",3,True,CHO,alkene
1408,P-Methyl Benzyl Alcohol,CC1=CC=C(C=C1)CO,490.15,8,"[1, 6, 8]",3,True,CHO,aromatic
1409,O-Ethoxyphenol,CCOC1=CC=CC=C1O,490.15,8,"[1, 6, 8]",3,True,CHO,ester
1410,"Ethanedioic Acid, Di-2-Propenyl Ester",C=CCOC(=O)C(=O)OCC=C,490.15,8,"[1, 6, 8]",3,True,CHO,ester
1411,"Ethanol, 2-(2-(2-Methylpropoxy)ethoxy)-",CC(C)COCCOCCO,490.15,8,"[1, 6, 8]",3,True,CHO,ester
1412,"2-Cyclohexen-1-One, 3,4,4-Trimethyl-",CC1=CC(=O)CCC1(C)C,490.15,9,"[1, 6, 8]",3,True,CHO,alkene
1413,Methyl Heptine Carbonate,CCCCCC#CC(=O)OC,491.65,9,"[1, 6, 8]",3,True,CHO,ester
1414,"Benzenemethanol, .alpha.-Ethynyl-.alpha.-Methyl-",CC(C#C)(C1=CC=CC=C1)O,490.65,10,"[1, 6, 8]",3,True,CHO,alkyne
1415,"1-Heptanol, 2-Propyl-",CCCCCC(CCC)CO,490.65,10,"[1, 6, 8]",3,True,CHO,alcohol
1416,M-Dimethoxybenzene,COC1=CC(=CC=C1)OC,490.65,8,"[1, 6, 8]",3,True,CHO,ester
1417,"Benzaldehyde, 2-Hydroxy-5-Methyl-",CC1=CC(=C(C=C1)O)C=O,490.65,8,"[1, 6, 8]",3,True,CHO,aldehyde
1418,Propiophenone,CCC(=O)C1=CC=CC=C1,490.65,9,"[1, 6, 8]",3,True,CHO,aromatic
1419,Diethyl Succinate,CCOC(=O)CCC(=O)OCC,490.84999999999997,8,"[1, 6, 8]",3,True,CHO,ester
1420,P-Ethylphenol,CCC1=CC=C(C=C1)O,491.04999999999995,8,"[1, 6, 8]",3,True,CHO,aromatic
1421,"2,5-Hexanediol",CC(CCC(C)O)O,491.15,6,"[1, 6, 8]",3,True,CHO,alcohol
1422,O-Hydroxyacetophenone,CC(=O)C1=CC=CC=C1O,491.15,8,"[1, 6, 8]",3,True,CHO,ketone
1423,"2h-Inden-2-One, Octahydro-, Trans-",C1CCC2CC(=O)CC2C1,491.15,9,"[1, 6, 8]",3,True,CHO,ketone
1424,2-Phenylethanol,C1=CC=C(C=C1)CCO,491.34999999999997,8,"[1, 6, 8]",3,True,CHO,aromatic
1425,M-Ethylphenol,CCC1=CC(=CC=C1)O,491.54999999999995,8,"[1, 6, 8]",3,True,CHO,aromatic
1426,Carbitol Acetate,CCOCCOCCOC(=O)C,491.65,8,"[1, 6, 8]",3,True,CHO,ester
1427,"Benzene, 1,2-Diethoxy-",CCOC1=CC=CC=C1OCC,492.15,10,"[1, 6, 8]",3,True,CHO,ester
1428,D-Valerolactone,C1CCOC(=O)C1,492.15,5,"[1, 6, 8]",3,True,CHO,ester
1429,A-Ethylbenzyl Alcohol,CCC(C1=CC=CC=C1)O,492.15,9,"[1, 6, 8]",3,True,CHO,aromatic
1430,"Benzenemethanol, .alpha.,4-Dimethyl-",CC1=CC=C(C=C1)C(C)O,492.15,9,"[1, 6, 8]",3,True,CHO,aromatic
1431,"Benzenemethanol, 3,5-Dimethyl-",CC1=CC(=CC(=C1)CO)C,492.65,9,"[1, 6, 8]",3,True,CHO,aromatic
1432,"1-Propanone, 2-Methyl-1-Phenyl-",CC(C)C(=O)C1=CC=CC=C1,493.15,10,"[1, 6, 8]",3,True,CHO,aromatic
1433,Benzyl Propionate,CCC(=O)OCC1=CC=CC=C1,493.15,10,"[1, 6, 8]",3,True,CHO,ester
1434,"Benzene, (2,2-Dimethoxyethyl)-",COC(CC1=CC=CC=C1)OC,493.15,10,"[1, 6, 8]",3,True,CHO,ester
1435,Alpha-Terpineol,CC1=CCC(CC1)C(C)(C)O,493.15,10,"[1, 6, 8]",3,True,CHO,alkene
1436,Isodecanol,CC(C)CCCCCCCO,493.15,10,"[1, 6, 8]",3,True,CHO,alcohol
1437,Benzal Diacetate,CC(=O)OC(C1=CC=CC=C1)OC(=O)C,493.15,11,"[1, 6, 8]",3,True,CHO,ester
1438,Trinexapac,C1CC1C(=C2C(=O)CC(CC2=O)C(=O)O)O,493.15,11,"[1, 6, 8]",3,True,CHO,carboxylic_acid
1439,"2,2-Dimethylpropiophenone",CC(C)(C)C(=O)C1=CC=CC=C1,493.15,11,"[1, 6, 8]",3,True,CHO,aromatic
1440,Linalyl Acetate,CC(=CCCC(C)(C=C)OC(=O)C)C,493.15,12,"[1, 6, 8]",3,True,CHO,ester
1441,"1,6-Octadien-3-Ol, 3,7-Dimethyl-, Acetate, (r)-",CC(=CCC[C@](C)(C=C)OC(=O)C)C,493.15,12,"[1, 6, 8]",3,True,CHO,ester
1442,"1,2-Propanediol, 3-Methoxy-",COCC(CO)O,493.15,4,"[1, 6, 8]",3,True,CHO,ester
1443,2-Propenyl-Phenol,C/C=C/C1=CC=CC=C1O,493.15,9,"[1, 6, 8]",3,True,CHO,alkene
1444,"1h-Inden-1-Ol, 2,3-Dihydro-",C1CC2=CC=CC=C2C1O,493.15,9,"[1, 6, 8]",3,True,CHO,aromatic
1445,M-Methylacetophenone,CC1=CC(=CC=C1)C(=O)C,493.15,9,"[1, 6, 8]",3,True,CHO,aromatic
1446,"Phenol, 2-(2-Propenyl)-",C=CCC1=CC=CC=C1O,493.15,9,"[1, 6, 8]",3,True,CHO,alkene
1447,"Benzaldehyde, 2,5-Dimethyl-",CC1=CC(=C(C=C1)C)C=O,493.15,9,"[1, 6, 8]",3,True,CHO,aromatic
1448,"Benzoic Acid, 4-Methyl-, Methyl Ester",CC1=CC=C(C=C1)C(=O)OC,493.15,9,"[1, 6, 8]",3,True,CHO,ester
1449,"Methanediol, 2-Furanyl-, Diacetate",CC(=O)OC(C1=CC=CO1)OC(=O)C,493.15,9,"[1, 6, 8]",3,True,CHO,ester
1450,O-Propylphenol,CCCC1=CC=CC=C1O,493.15,9,"[1, 6, 8]",3,True,CHO,aromatic
1451,"2,4,6-Trimethylphenol",CC1=CC(=C(C(=C1)C)O)C,493.15,9,"[1, 6, 8]",3,True,CHO,aromatic
1452,"Benzene, 1,2-Dimethoxy-4-Methyl-",CC1=CC(=C(C=C1)OC)OC,493.15,9,"[1, 6, 8]",3,True,CHO,ester
1453,Myrtenal,CC1(C2CC=C(C1C2)C=O)C,493.65,10,"[1, 6, 8]",3,True,CHO,alkene
1454,"Propanedioic Acid, Propyl-, Diethyl Ester",CCCC(C(=O)OCC)C(=O)OCC,494.15,10,"[1, 6, 8]",3,True,CHO,ester
1455,4-Methyl-2-Methoxyphenol,CC1=CC(=C(C=C1)O)OC,494.15,8,"[1, 6, 8]",3,True,CHO,ester
1456,"Cyclopentanecarboxylic Acid, 2-Oxo-, Ethyl Ester",CCOC(=O)C1CCCC1=O,494.15,8,"[1, 6, 8]",3,True,CHO,ester
1457,"Benzeneacetaldehyde, 2-Methyl-",CC1=CC=CC=C1CC=O,494.15,9,"[1, 6, 8]",3,True,CHO,aromatic
1458,"Benzoic Acid, 3-Methyl-, Methyl Ester",CC1=CC(=CC=C1)C(=O)OC,494.15,9,"[1, 6, 8]",3,True,CHO,ester
1459,(1r)-(-)-Myrtenol,CC1(C2CC=C(C1C2)CO)C,494.65,10,"[1, 6, 8]",3,True,CHO,alkene
1460,"Hexanoic Acid, 2-Acetyl-, Ethyl Ester",CCCCC(C(=O)C)C(=O)OCC,494.65,10,"[1, 6, 8]",3,True,CHO,ester
1461,"Hexanoic Acid, 5-Oxo-, Ethyl Ester",CCOC(=O)CCCC(=O)C,494.65,8,"[1, 6, 8]",3,True,CHO,ester