,Name,SMILES,Tb,C Atom,Atom,Count Unique Atom,Pass Screen,Atom2,Func. Group
9821,"4-(dimethoxymethyl)-1,3-dimethylcyclohexene",CC1C=C(CCC1C(OC)OC)C,514.7,11,"[1, 6, 8]",3,True,CHO,ester
9822,"2,3-ditert-butylcyclopropan-1-one",CC(C)(C)C1C(C1=O)C(C)(C)C,514.71,11,"[1, 6, 8]",3,True,CHO,ketone
9823,4-butoxybenzonitrile,CCCCOC1=CC=C(C=C1)C#N,515.15,11,"[1, 6, 7, 8]",4,True,CHON,ester
9824,"2-butyl-4,4,6-trimethyl-1,3-dioxane",CCCCC1OC(CC(O1)(C)C)C,515.63,11,"[1, 6, 8]",3,True,CHO,ester
9825,(4-methylphenyl) butanoate,CCCC(=O)OC1=CC=C(C=C1)C,515.65,11,"[1, 6, 8]",3,True,CHO,ester
9826,2-pentan-2-ylphenol,CCCC(C)C1=CC=CC=C1O,515.74,11,"[1, 6, 8]",3,True,CHO,aromatic
9827,(E)-3-(2-bicyclo[2.2.1]hept-5-enyl)-2-methylprop-2-enal,C/C(=C\C1CC2CC1C=C2)/C=O,516.22,11,"[1, 6, 8]",3,True,CHO,alkene
9828,5-hexyl-5-methyloxolan-2-one,CCCCCCC1(CCC(=O)O1)C,516.48,11,"[1, 6, 8]",3,True,CHO,ester
9829,ethyl 2-phenoxypropanoate,CCOC(=O)C(C)OC1=CC=CC=C1,516.65,11,"[1, 6, 8]",3,True,CHO,ester
9830,ethyl 3-methylbicyclo[2.2.1]hept-5-ene-2-carboxylate,CCOC(=O)C1C(C2CC1C=C2)C,517.07,11,"[1, 6, 8]",3,True,CHO,ester
9831,"2,6-dimethylhepta-2,5-dien-4-yl acetate",CC(=CC(C=C(C)C)OC(=O)C)C,517.14,11,"[1, 6, 8]",3,True,CHO,ester
9832,"2-tert-butyl-2,5,5-trimethyl-1,3-dioxane",CC1(COC(OC1)(C)C(C)(C)C)C,517.31,11,"[1, 6, 8]",3,True,CHO,ester
9833,"[(2E,4E)-hexa-2,4-dienyl] 3-methylbutanoate",C/C=C/C=C/COC(=O)CC(C)C,517.38,11,"[1, 6, 8]",3,True,CHO,ester
9834,"2-(6,6-dimethyl-2-bicyclo[3.1.1]hept-2-enyl)acetaldehyde",CC1(C2CC=C(C1C2)CC=O)C,517.4,11,"[1, 6, 8]",3,True,CHO,alkene
9835,"methyl (2E)-3,7-dimethylocta-2,6-dienoate",CC(=CCC/C(=C/C(=O)OC)/C)C,517.58,11,"[1, 6, 8]",3,True,CHO,ester
9836,"N,N-dibutylpropanamide",CCCCN(CCCC)C(=O)CC,517.59,11,"[1, 6, 7, 8]",4,True,CHON,amide
9837,"N,N-dimethylnonanamide",CCCCCCCCC(=O)N(C)C,517.59,11,"[1, 6, 7, 8]",4,True,CHON,amide
9838,"1,1,3-triethoxypentane",CCC(CC(OCC)OCC)OCC,517.66,11,"[1, 6, 8]",3,True,CHO,ester
9839,[(Z)-hex-3-enyl] (E)-2-methylbut-2-enoate,CC/C=C\CCOC(=O)/C(=C/C)/C,517.7,11,"[1, 6, 8]",3,True,CHO,ester
9840,"methyl (2E,4E)-deca-2,4-dienoate",CCCCC/C=C/C=C/C(=O)OC,517.82,11,"[1, 6, 8]",3,True,CHO,ester
9841,"[(3E,6Z)-nona-3,6-dienyl] acetate",CC/C=C\C/C=C/CCOC(=O)C,517.82,11,"[1, 6, 8]",3,True,CHO,ester
9842,"8-methoxy-1,2,3,4,4a,5,6,7-octahydronaphthalene",COC1=C2CCCCC2CCC1,518.05,11,"[1, 6, 8]",3,True,CHO,ester
9843,ethyl non-2-ynoate,CCCCCCC#CC(=O)OCC,518.5,11,"[1, 6, 8]",3,True,CHO,ester
9844,2-cyclohexylpyridine,C1CCC(CC1)C2=CC=CC=N2,518.65,11,"[1, 6, 7]",3,True,CHN,aromatic
9845,3-methyl-2-phenylbutanenitrile,CC(C)C(C#N)C1=CC=CC=C1,519.15,11,"[1, 6, 7]",3,True,CHN,aromatic
9846,2-butan-2-yl-5-methylphenol,CCC(C)C1=C(C=C(C=C1)C)O,519.15,11,"[1, 6, 8]",3,True,CHO,aromatic
9847,"1-(1,2,2-trimethylcyclohex-3-en-1-yl)ethanone",CC(=O)C1(CCC=CC1(C)C)C,519.67,11,"[1, 6, 8]",3,True,CHO,alkene
9848,"1-(1,5,5-trimethylcyclohex-3-en-1-yl)ethanone",CC(=O)C1(CC=CC(C1)(C)C)C,519.67,11,"[1, 6, 8]",3,True,CHO,alkene
9849,"(2,4-dimethylcyclohexyl)methyl acetate",CC1CCC(C(C1)C)COC(=O)C,519.71,11,"[1, 6, 8]",3,True,CHO,ester
9850,"2-hexyl-4-methyl-1,3-dioxane",CCCCCCC1OCCC(O1)C,520.06,11,"[1, 6, 8]",3,True,CHO,ester
9851,"5-hexyl-2-methyl-1,3-dioxane",CCCCCCC1COC(OC1)C,520.06,11,"[1, 6, 8]",3,True,CHO,ester
9852,"2-hexyl-5-methyl-1,3-dioxane",CCCCCCC1OCC(CO1)C,520.06,11,"[1, 6, 8]",3,True,CHO,ester
9853,2-hexoxyoxane,CCCCCCOC1CCCCO1,520.2,11,"[1, 6, 8]",3,True,CHO,ester
9854,"1,7-diazabicyclo[5.3.3]tridecane",C1CCN2CCCN(CC1)CCC2,520.33,11,"[1, 6, 7]",3,True,CHN,amine
9855,"1,7-diazabicyclo[5.4.2]tridecane",C1CCN2CCCCN(CC1)CC2,520.33,11,"[1, 6, 7]",3,True,CHN,amine
9856,"1,8-diazabicyclo[6.3.2]tridecane",C1CCCN2CCCN(CC1)CC2,520.33,11,"[1, 6, 7]",3,True,CHN,amine
9857,6-hexyloxan-2-one,CCCCCCC1CCCC(=O)O1,520.51,11,"[1, 6, 8]",3,True,CHO,ester
9858,3-(dibutylamino)propan-1-ol,CCCCN(CCCC)CCCO,520.65,11,"[1, 6, 7, 8]",4,True,CHON,alcohol
9859,"1,4-diethoxy-2-methylbenzene",CCOC1=CC(=C(C=C1)OCC)C,521.15,11,"[1, 6, 8]",3,True,CHO,ester
9860,N-methyladamantan-1-amine,CNC12CC3CC(C1)CC(C3)C2,521.51,11,"[1, 6, 7]",3,True,CHN,amine
9861,"ethyl N,N-dibutylcarbamate",CCCCN(CCCC)C(=O)OCC,521.94,11,"[1, 6, 7, 8]",4,True,CHON,ester
9862,1-oxaspiro[4.7]dodecane,C1CCCC2(CCC1)CCCO2,522.24,11,"[1, 6, 8]",3,True,CHO,ester
9863,diethyl 2-butanoylpropanedioate,CCCC(=O)C(C(=O)OCC)C(=O)OCC,522.65,11,"[1, 6, 8]",3,True,CHO,ester
9864,5-ethylnonan-2-amine,CCCCC(CC)CCC(C)N,522.93,11,"[1, 6, 7]",3,True,CHN,amine
9865,"5-methyl-3-phenyl-1,2-oxazole-4-carboxylic acid",CC1=C(C(=NO1)C2=CC=CC=C2)C(=O)O,523.15,11,"[1, 6, 7, 8]",4,True,CHON,aromatic
9866,undecan-2-amine,CCCCCCCCCC(C)N,523.37,11,"[1, 6, 7]",3,True,CHN,amine
9867,undecan-6-amine,CCCCCC(CCCCC)N,523.37,11,"[1, 6, 7]",3,True,CHN,amine
9868,"4,5-dimethyl-2-propan-2-ylphenol",CC1=CC(=C(C=C1C)O)C(C)C,523.4,11,"[1, 6, 8]",3,True,CHO,aromatic
9869,"3-(1,3-dimethylcyclohex-3-en-1-yl)propanal",CC1=CCCC(C1)(C)CCC=O,523.87,11,"[1, 6, 8]",3,True,CHO,alkene
9870,1-(4-methylcyclohexyl)ethyl acetate,CC1CCC(CC1)C(C)OC(=O)C,523.94,11,"[1, 6, 8]",3,True,CHO,ester
9871,ethyl 2-ethoxybenzoate,CCOC1=CC=CC=C1C(=O)OCC,524.15,11,"[1, 6, 8]",3,True,CHO,ester
9872,1-(2-hydroxy-5-methylphenyl)-2-methylpropan-1-one,CC1=CC(=C(C=C1)O)C(=O)C(C)C,524.15,11,"[1, 6, 8]",3,True,CHO,ketone
9873,5-but-1-enyl-5-ethyloxan-2-one,CCC=CC1(CCC(=O)OC1)CC,524.91,11,"[1, 6, 8]",3,True,CHO,ester
9874,"tert-butyl 4,4-dimethylpentaneperoxoate",CC(C)(C)CCC(=O)OOC(C)(C)C,525.46,11,"[1, 6, 8]",3,True,CHO,ester
9875,prop-2-enyl 2-cyclohexylacetate,C=CCOC(=O)CC1CCCCC1,525.73,11,"[1, 6, 8]",3,True,CHO,ester
9876,8-methyl-N-propyl-8-azabicyclo[3.2.1]octan-3-amine,CCCNC1CC2CCC(C1)N2C,526.97,11,"[1, 6, 7]",3,True,CHN,amine
9877,ethyl N-ethyl-N-phenylcarbamate,CCN(C1=CC=CC=C1)C(=O)OCC,527.15,11,"[1, 6, 7, 8]",4,True,CHON,ester
9878,"(2,6,6-trimethyl-3-bicyclo[3.1.1]heptanyl)methanamine",CC1C(CC2CC1C2(C)C)CN,527.79,11,"[1, 6, 7]",3,True,CHN,amine
9879,4-(3-methylbutyl)phenol,CC(C)CCC1=CC=C(C=C1)O,528.15,11,"[1, 6, 8]",3,True,CHO,aromatic
9880,2-phenylpentanenitrile,CCCC(C#N)C1=CC=CC=C1,528.15,11,"[1, 6, 7]",3,True,CHN,aromatic
9881,"2-hexyl-4,7-dihydro-1,3-dioxepine",CCCCCCC1OCC=CCO1,528.16,11,"[1, 6, 8]",3,True,CHO,ester
9882,1-cyclohexylpropyl acetate,CCC(C1CCCCC1)OC(=O)C,528.61,11,"[1, 6, 8]",3,True,CHO,ester
9883,methyl 2-cyclohexylbutanoate,CCC(C1CCCCC1)C(=O)OC,528.61,11,"[1, 6, 8]",3,True,CHO,ester
9884,"5,5-dimethyl-2-[(1E,3E)-penta-1,3-dienyl]-1,3-dioxane",C/C=C/C=C/C1OCC(CO1)(C)C,528.62,11,"[1, 6, 8]",3,True,CHO,ester
9885,"2-(2,6,6-trimethylcyclohexen-1-yl)acetaldehyde",CC1=C(C(CCC1)(C)C)CC=O,528.85,11,"[1, 6, 8]",3,True,CHO,alkene
9886,"4-methyl-4-phenyl-1,3-dioxane",CC1(CCOCO1)C2=CC=CC=C2,529.15,11,"[1, 6, 8]",3,True,CHO,ester
9887,"2-hexyl-1,3-dioxacyclohept-5-yne",CCCCCCC1OCC#CCO1,529.46,11,"[1, 6, 8]",3,True,CHO,ester
9888,"1,3-bis(dimethylamino)propan-2-yl 2-methylprop-2-enoate",CC(=C)C(=O)OC(CN(C)C)CN(C)C,530.5,11,"[1, 6, 7, 8]",4,True,CHON,ester
9889,"1-methyl-5-propan-2-yl-2,4-dioxabicyclo[3.2.2]non-6-ene",CC(C)C12CCC(C=C1)(OCO2)C,530.67,11,"[1, 6, 8]",3,True,CHO,ester
9890,4-tert-butylbenzonitrile,CC(C)(C)C1=CC=C(C=C1)C#N,531.15,11,"[1, 6, 7]",3,True,CHN,aromatic
9891,diethyl 3-methylhexanedioate,CCOC(=O)CCC(C)CC(=O)OCC,531.15,11,"[1, 6, 8]",3,True,CHO,ester
9892,"1-methyl-5-propan-2-yl-2,4-dioxabicyclo[3.2.2]nonane",CC(C)C12CCC(CC1)(OCO2)C,531.51,11,"[1, 6, 8]",3,True,CHO,ester
9893,propyl 2-phenylacetate,CCCOC(=O)CC1=CC=CC=C1,531.65,11,"[1, 6, 8]",3,True,CHO,ester
9894,8-ethyl-1-oxaspiro[4.5]decan-2-one,CCC1CCC2(CC1)CCC(=O)O2,531.76,11,"[1, 6, 8]",3,True,CHO,ester
9895,"4,4,7a-trimethyl-6,7-dihydro-5H-1-benzofuran-2-one",CC1(CCCC2(C1=CC(=O)O2)C)C,531.87,11,"[1, 6, 8]",3,True,CHO,ester
9896,"2,2-dimethyl-5-methylideneoct-7-en-3-ol",CC(C)(C)C(CC(=C)CC=C)O,533.03,11,"[1, 6, 8]",3,True,CHO,alkene
9897,undec-1-yn-4-ol,CCCCCCCC(CC#C)O,533.14,11,"[1, 6, 8]",3,True,CHO,alkyne
9898,"2,3,5,6-tetramethylidenebicyclo[2.2.1]heptan-7-one",C=C1C2C(=C)C(=C)C(C1=C)C2=O,533.49,11,"[1, 6, 8]",3,True,CHO,alkene
9899,undec-10-yn-1-ol,C#CCCCCCCCCCO,533.58,11,"[1, 6, 8]",3,True,CHO,alkyne
9900,2-(4-methylpentyl)cyclopentan-1-one,CC(C)CCCC1CCCC1=O,533.94,11,"[1, 6, 8]",3,True,CHO,ketone
9901,"1-methyl-3,4-dihydro-1H-naphthalen-2-one",CC1C(=O)CCC2=CC=CC=C12,534.15,11,"[1, 6, 8]",3,True,CHO,aromatic
9902,2-hexylcyclopentan-1-one,CCCCCCC1CCCC1=O,534.38,11,"[1, 6, 8]",3,True,CHO,ketone
9903,"3,7-dimethylnon-6-en-1-yn-3-ol",CCC(=CCCC(C)(C#C)O)C,534.39,11,"[1, 6, 8]",3,True,CHO,alkene
9904,2-pentylphenol,CCCCCC1=CC=CC=C1O,535.15,11,"[1, 6, 8]",3,True,CHO,aromatic
9905,4-(2-methylbutan-2-yl)cyclohexan-1-one,CCC(C)(C)C1CCC(=O)CC1,535.42,11,"[1, 6, 8]",3,True,CHO,ketone
9906,"1,3-dimethylisoquinoline",CC1=CC2=CC=CC=C2C(=N1)C,535.65,11,"[1, 6, 7]",3,True,CHN,aromatic
9907,"methyl (2Z)-2-(3,3-dimethylcyclohexylidene)acetate",CC1(CCC/C(=C/C(=O)OC)/C1)C,535.93,11,"[1, 6, 8]",3,True,CHO,ester
9908,[(E)-but-2-enyl] 2-pentoxyacetate,CCCCCOCC(=O)OC/C=C/C,536.08,11,"[1, 6, 8]",3,True,CHO,ester
9909,"1-(3,6-dihydro-2H-pyridin-1-yl)-2-methylpentan-1-one",CCCC(C)C(=O)N1CCC=CC1,536.26,11,"[1, 6, 7, 8]",4,True,CHON,amide
9910,"(5E)-3,4-dimethyl-5-pentylidenefuran-2-one",CCCC/C=C/1\C(=C(C(=O)O1)C)C,536.67,11,"[1, 6, 8]",3,True,CHO,ester
9911,N-phenyl-N-propan-2-ylacetamide,CC(C)N(C1=CC=CC=C1)C(=O)C,537.15,11,"[1, 6, 7, 8]",4,True,CHON,amide
9912,ethyl 3-(3-methylpiperidin-1-yl)propanoate,CCOC(=O)CCN1CCCC(C1)C,537.22,11,"[1, 6, 7, 8]",4,True,CHON,ester
9913,propan-2-yl 2-(cyclohexen-1-yl)acetate,CC(C)OC(=O)CC1=CCCCC1,537.42,11,"[1, 6, 8]",3,True,CHO,ester
9914,"2,5-dimethylquinoline",CC1=C2C=CC(=NC2=CC=C1)C,537.65,11,"[1, 6, 7]",3,True,CHN,aromatic
9915,N-methylcyclodecanamine,CNC1CCCCCCCCC1,538.08,11,"[1, 6, 7]",3,True,CHN,amine
9916,2-hex-2-enylcyclopentan-1-one,CCCC=CCC1CCCC1=O,538.54,11,"[1, 6, 8]",3,True,CHO,alkene
9917,2-[(E)-hex-3-enyl]cyclopentan-1-one,CC/C=C/CCC1CCCC1=O,538.54,11,"[1, 6, 8]",3,True,CHO,alkene
9918,"2-(2,4-dimethylcyclohex-3-en-1-yl)-1,3-dioxolane",CC1C=C(CCC1C2OCCO2)C,539.48,11,"[1, 6, 8]",3,True,CHO,ester
9919,undec-1-en-3-ol,CCCCCCCCC(C=C)O,539.7,11,"[1, 6, 8]",3,True,CHO,alkene
9920,4-cyclohexyloxan-2-one,C1CCC(CC1)C2CCOC(=O)C2,540.06,11,"[1, 6, 8]",3,True,CHO,ester
9921,"1,1-bis(2-methoxyethoxy)-3-methylbutane",CC(C)CC(OCCOC)OCCOC,540.08,11,"[1, 6, 8]",3,True,CHO,ester
9922,(4-methoxyphenyl) butanoate,CCCC(=O)OC1=CC=C(C=C1)OC,540.15,11,"[1, 6, 8]",3,True,CHO,ester
9923,2-methyldecan-2-ol,CCCCCCCCC(C)(C)O,540.23,11,"[1, 6, 8]",3,True,CHO,alcohol
9924,"1-ethyl-1,3,3a,4,5,6,7,7a-octahydroinden-2-one",CCC1C2CCCCC2CC1=O,540.72,11,"[1, 6, 8]",3,True,CHO,ketone
9925,"(6E)-3,7-dimethylnona-1,6-dien-3-ol",CC/C(=C/CCC(C)(C=C)O)/C,540.95,11,"[1, 6, 8]",3,True,CHO,alkene
9926,prop-2-enyl 4-methyl-7-oxabicyclo[4.1.0]heptane-3-carboxylate,CC1CC2C(O2)CC1C(=O)OCC=C,541.54,11,"[1, 6, 8]",3,True,CHO,ester
9927,"2,8-dimethylnonan-5-ol",CC(C)CCC(CCC(C)C)O,542.14,11,"[1, 6, 8]",3,True,CHO,alcohol
9928,"6,8-dimethylnonan-2-ol",CC(C)CC(C)CCCC(C)O,542.14,11,"[1, 6, 8]",3,True,CHO,alcohol
9929,"3,8-dimethylquinoline",CC1=C2C(=CC=C1)C=C(C=N2)C,542.15,11,"[1, 6, 7]",3,True,CHN,aromatic
9930,"2-butyl-2-ethylpentane-1,5-diamine",CCCCC(CC)(CCCN)CN,542.15,11,"[1, 6, 7]",3,True,CHN,amine
9931,"tricyclo[4.3.1.12,5]undec-3-en-10-amine",C1CC2C3CC(C=C3)C(C1)C2N,542.39,11,"[1, 6, 7]",3,True,CHN,alkene
9932,3-methyldecan-4-ol,CCCCCCC(C(C)CC)O,542.58,11,"[1, 6, 8]",3,True,CHO,alcohol
9933,2-methyldecan-3-ol,CCCCCCCC(C(C)C)O,542.58,11,"[1, 6, 8]",3,True,CHO,alcohol
9934,undecan-4-ol,CCCCCCCC(CCC)O,543.02,11,"[1, 6, 8]",3,True,CHO,alcohol
9935,2-methyldecan-1-ol,CCCCCCCCC(C)CO,543.02,11,"[1, 6, 8]",3,True,CHO,alcohol
9936,9-methyldecan-1-ol,CC(C)CCCCCCCCO,543.02,11,"[1, 6, 8]",3,True,CHO,alcohol
9937,"3,6-dimethylquinoline",CC1=CC2=C(C=C1)N=CC(=C2)C,543.15,11,"[1, 6, 7]",3,True,CHN,aromatic
9938,"6,7,8,9-tetrahydrobenzo[7]annulen-5-one",C1CCC(=O)C2=CC=CC=C2C1,543.2,11,"[1, 6, 8]",3,True,CHO,aromatic
9939,"tricyclo[4.3.1.12,5]undecan-10-amine",C1CC2C3CCC(C3)C(C1)C2N,543.23,11,"[1, 6, 7]",3,True,CHN,amine
9940,4-(cyclohepten-1-yl)morpholine,C1CCC=C(CC1)N2CCOCC2,543.25,11,"[1, 6, 7, 8]",4,True,CHON,ester
9941,"1,2-dimethoxy-4-[(Z)-prop-1-enyl]benzene",C/C=C\C1=CC(=C(C=C1)OC)OC,543.65,11,"[1, 6, 8]",3,True,CHO,ester
9942,1-[4-(dimethylamino)phenyl]propan-1-one,CCC(=O)C1=CC=C(C=C1)N(C)C,544.15,11,"[1, 6, 7, 8]",4,True,CHON,ketone
9943,"3,7-dimethylquinoline",CC1=CC2=C(C=C1)C=C(C=N2)C,544.15,11,"[1, 6, 7]",3,True,CHN,aromatic
9944,"1-methyl-3,4,4a,5,6,7,8,8a-octahydro-1H-naphthalen-2-one",CC1C2CCCCC2CCC1=O,544.99,11,"[1, 6, 8]",3,True,CHO,ketone
9945,"3-methyl-3,4,4a,5,6,7,8,8a-octahydro-1H-naphthalen-2-one",CC1CC2CCCCC2CC1=O,544.99,11,"[1, 6, 8]",3,True,CHO,ketone
9946,(2E)-2-(4-methylpentylidene)cyclopentan-1-one,CC(C)CC/C=C/1\CCCC1=O,545.25,11,"[1, 6, 8]",3,True,CHO,alkene
9947,(2E)-2-(2-ethylbutylidene)cyclopentan-1-one,CCC(CC)/C=C/1\CCCC1=O,545.25,11,"[1, 6, 8]",3,True,CHO,alkene
9948,"N-(2,4,4-trimethylpentan-2-yl)prop-2-enamide",CC(C)(C)CC(C)(C)NC(=O)C=C,545.54,11,"[1, 6, 7, 8]",4,True,CHON,alkene
9949,"7a-ethyl-3,3a,4,5,6,7-hexahydro-2H-inden-1-one",CCC12CCCCC1CCC2=O,545.63,11,"[1, 6, 8]",3,True,CHO,ketone
9950,3-(2-ethylhexoxy)propan-1-amine,CCCCC(CC)COCCCN,545.79,11,"[1, 6, 7, 8]",4,True,CHON,ester
9951,3-(6-methylheptoxy)propan-1-amine,CC(C)CCCCCOCCCN,545.79,11,"[1, 6, 7, 8]",4,True,CHON,ester
9952,[2-hydroxy-3-(2-methoxyphenoxy)propyl] carbamate,COC1=CC=CC=C1OCC(COC(=O)N)O,546.15,11,"[1, 6, 7, 8]",4,True,CHON,ester
9953,(E)-undec-9-enoic acid,C/C=C/CCCCCCCC(=O)O,546.15,11,"[1, 6, 8]",3,True,CHO,alkene
9954,ethyl 3-(azepan-1-yl)propanoate,CCOC(=O)CCN1CCCCCC1,546.16,11,"[1, 6, 7, 8]",4,True,CHON,ester
9955,3-octoxypropan-1-amine,CCCCCCCCOCCCN,546.23,11,"[1, 6, 7, 8]",4,True,CHON,ester
9956,"4,8-dimethylnon-3-en-5-ol",CCC=C(C)C(CCC(C)C)O,546.62,11,"[1, 6, 8]",3,True,CHO,alkene
9957,"4,6-dimethylquinoline",CC1=CC2=C(C=CN=C2C=C1)C,546.65,11,"[1, 6, 7]",3,True,CHN,aromatic
9958,"3,6,7-trimethyloct-6-en-1-ol",CC(CCC(=C(C)C)C)CCO,546.94,11,"[1, 6, 8]",3,True,CHO,alkene
9959,6-ethyl-3-methyloct-5-en-1-ol,CCC(=CCC(C)CCO)CC,547.06,11,"[1, 6, 8]",3,True,CHO,alkene
9960,(E)-6-ethyl-3-methyloct-6-en-1-ol,CC/C(=C\C)/CCC(C)CCO,547.06,11,"[1, 6, 8]",3,True,CHO,alkene
9961,"5,7-dimethylquinoline",CC1=CC(=C2C=CC=NC2=C1)C,547.15,11,"[1, 6, 7]",3,True,CHN,aromatic
9962,(E)-undec-2-en-1-ol,CCCCCCCC/C=C/CO,547.62,11,"[1, 6, 8]",3,True,CHO,alkene
9963,"tricyclo[5.3.1.03,8]undecan-3-amine",C1CC2CC3CCC2C(C1)(C3)N,548.14,11,"[1, 6, 7]",3,True,CHN,amine
9964,2-methyl-3-pentylcyclopent-2-en-1-one,CCCCCC1=C(C(=O)CC1)C,548.17,11,"[1, 6, 8]",3,True,CHO,alkene
9965,benzyl 3-oxobutanoate,CC(=O)CC(=O)OCC1=CC=CC=C1,549.15,11,"[1, 6, 8]",3,True,CHO,ester
9966,3-methyl-2-pentylcyclopentan-1-ol,CCCCCC1C(CCC1O)C,549.4,11,"[1, 6, 8]",3,True,CHO,alcohol
9967,2-pentylidenecyclohexan-1-one,CCCCC=C1CCCCC1=O,549.96,11,"[1, 6, 8]",3,True,CHO,alkene
9968,4-methyl-2-phenylpyrimidine,CC1=NC(=NC=C1)C2=CC=CC=C2,550.15,11,"[1, 6, 7]",3,True,CHN,aromatic
9969,2-phenoxypyridine,C1=CC=C(C=C1)OC2=CC=CC=N2,550.4,11,"[1, 6, 7, 8]",4,True,CHON,ester
9970,2-tert-butyl-5-methylcyclohexan-1-ol,CC1CCC(C(C1)O)C(C)(C)C,550.44,11,"[1, 6, 8]",3,True,CHO,alcohol
9971,oxacyclododecan-2-one,C1CCCCCOC(=O)CCCC1,550.8,11,"[1, 6, 8]",3,True,CHO,ester
9972,1-cyclohexyloxypropan-2-yl acetate,CC(COC1CCCCC1)OC(=O)C,551.03,11,"[1, 6, 8]",3,True,CHO,ester
9973,"(3E)-4,8-dimethylnona-3,7-dien-2-ol",CC(/C=C(\C)/CCC=C(C)C)O,551.1,11,"[1, 6, 8]",3,True,CHO,alkene
9974,"ethyl 4,4-diethoxypentanoate",CCOC(=O)CCC(C)(OCC)OCC,551.11,11,"[1, 6, 8]",3,True,CHO,ester
9975,"triethyl ethane-1,1,2-tricarboxylate",CCOC(=O)CC(C(=O)OCC)C(=O)OCC,551.15,11,"[1, 6, 8]",3,True,CHO,ester
9976,"(2E)-3,6,7-trimethylocta-2,6-dien-1-ol",CC(=C(C)CC/C(=C/CO)/C)C,551.42,11,"[1, 6, 8]",3,True,CHO,alkene
9977,"(2E,6E)-3,7-dimethylnona-2,6-dien-1-ol",CC/C(=C/CC/C(=C/CO)/C)/C,551.54,11,"[1, 6, 8]",3,True,CHO,alkene
9978,"(5E,9E)-undeca-5,9-dien-1-ol",C/C=C/CC/C=C/CCCCO,551.78,11,"[1, 6, 8]",3,True,CHO,alkene
9979,2-methyl-3-[(E)-pent-2-enyl]cyclopent-2-en-1-one,CC/C=C/CC1=C(C(=O)CC1)C,552.33,11,"[1, 6, 8]",3,True,CHO,alkene
9980,"2,2,6,6-tetramethylheptane-3,5-dione",CC(C)(C)C(=O)CC(=O)C(C)(C)C,552.56,11,"[1, 6, 8]",3,True,CHO,ketone
9981,"1,1,2,3,3-pentaethylguanidine",CCN=C(N(CC)CC)N(CC)CC,552.72,11,"[1, 6, 7]",3,True,CHN,amine
9982,"tricyclo[3.3.3.01,5]undecan-2-one",C1CC23CCCC2(C1)C(=O)CC3,553.01,11,"[1, 6, 8]",3,True,CHO,ketone
9983,"3-methyl-4,4a,5,6,7,8-hexahydro-3H-naphthalen-2-one",CC1CC2CCCCC2=CC1=O,553.8,11,"[1, 6, 8]",3,True,CHO,alkene
9984,"2,4-dimethylquinolin-8-ol",CC1=CC(=NC2=C1C=CC=C2O)C,554.15,11,"[1, 6, 7, 8]",4,True,CHON,aromatic
9985,5-tert-butyl-2-methylidenecyclohexan-1-ol,CC(C)(C)C1CCC(=C)C(C1)O,554.27,11,"[1, 6, 8]",3,True,CHO,alkene
9986,"1,3,3,5,5-pentamethylcyclohexan-1-ol",CC1(CC(CC(C1)(C)O)(C)C)C,554.39,11,"[1, 6, 8]",3,True,CHO,alcohol
9987,methyl 3-[(1R)-1-methyl-2-oxocyclohexyl]propanoate,C[C@@]1(CCCCC1=O)CCC(=O)OC,554.65,11,"[1, 6, 8]",3,True,CHO,ester
9988,methyl 3-[(1S)-1-methyl-2-oxocyclohexyl]propanoate,C[C@]1(CCCCC1=O)CCC(=O)OC,554.65,11,"[1, 6, 8]",3,True,CHO,ester
9989,4-(2-methylbutan-2-yl)cyclohexan-1-ol,CCC(C)(C)C1CCC(CC1)O,555.11,11,"[1, 6, 8]",3,True,CHO,alcohol
9990,"diethyl pyridine-2,3-dicarboxylate",CCOC(=O)C1=C(N=CC=C1)C(=O)OCC,555.15,11,"[1, 6, 7, 8]",4,True,CHON,ester
9991,2-(2-methoxyethoxycarbonyl)benzoic acid,COCCOC(=O)C1=CC=CC=C1C(=O)O,555.15,11,"[1, 6, 8]",3,True,CHO,carboxylic_acid
9992,N-hexylpentanamide,CCCCCCNC(=O)CCCC,555.32,11,"[1, 6, 7, 8]",4,True,CHON,amide
9993,N-methyldecanamide,CCCCCCCCCC(=O)NC,555.32,11,"[1, 6, 7, 8]",4,True,CHON,amide
9994,"2,2,7-trimethyloctane-3,5-dione",CC(C)CC(=O)CC(=O)C(C)(C)C,555.35,11,"[1, 6, 8]",3,True,CHO,ketone
9995,1-(dibutylamino)propan-2-ol,CCCCN(CCCC)CC(C)O,555.46,11,"[1, 6, 7, 8]",4,True,CHON,alcohol
9996,N-pentylaniline,CCCCCNC1=CC=CC=C1,555.65,11,"[1, 6, 7]",3,True,CHN,aromatic
9997,3-(2-bicyclo[2.2.1]heptanyl)-2-methylpropan-1-ol,CC(CC1CC2CCC1C2)CO,556.1,11,"[1, 6, 8]",3,True,CHO,alcohol
9998,1-ethyl-3-methyl-3H-indol-2-one,CCN1C2=CC=CC=C2C(C1=O)C,556.15,11,"[1, 6, 7, 8]",4,True,CHON,amide
9999,"spiro[5.5]undeca-4,9-dien-3-one",C1CC2(CCC(=O)C=C2)CC=C1,557.16,11,"[1, 6, 8]",3,True,CHO,alkene
10000,1-(4-propan-2-ylcyclohexyl)ethanol,CC(C)C1CCC(CC1)C(C)O,557.46,11,"[1, 6, 8]",3,True,CHO,alcohol
10001,bis(prop-2-enyl) 2-methylidenebutanedioate,C=CCOC(=O)CC(=C)C(=O)OCC=C,557.64,11,"[1, 6, 8]",3,True,CHO,ester
10002,5-methyl-2-propan-2-ylbenzoic acid,CC1=CC(=C(C=C1)C(C)C)C(=O)O,558.15,11,"[1, 6, 8]",3,True,CHO,aromatic
10003,4-butoxybenzaldehyde,CCCCOC1=CC=C(C=C1)C=O,558.15,11,"[1, 6, 8]",3,True,CHO,ester
10004,"2,6-dimethoxy-4-propylphenol",CCCC1=CC(=C(C(=C1)OC)O)OC,558.15,11,"[1, 6, 8]",3,True,CHO,ester
10005,methyl 10-oxodecanoate,COC(=O)CCCCCCCCC=O,558.16,11,"[1, 6, 8]",3,True,CHO,ester
10006,2-hex-2-enylcyclopentan-1-ol,CCCC=CCC1CCCC1O,558.23,11,"[1, 6, 8]",3,True,CHO,alkene
10007,"4a-methyl-3,4,5,6,7,8-hexahydronaphthalen-2-one",CC12CCCCC1=CC(=O)CC2,558.71,11,"[1, 6, 8]",3,True,CHO,alkene
10008,"(4aS)-4a-methyl-3,4,5,6,7,8-hexahydronaphthalen-2-one",C[C@@]12CCCCC1=CC(=O)CC2,558.71,11,"[1, 6, 8]",3,True,CHO,alkene
10009,2-methyladamantan-2-ol,CC1(C2CC3CC(C2)CC1C3)O,558.85,11,"[1, 6, 8]",3,True,CHO,alcohol
10010,(E)-3-methyl-4-phenylbut-3-en-2-one,C/C(=C\C1=CC=CC=C1)/C(=O)C,559.15,11,"[1, 6, 8]",3,True,CHO,alkene
10011,"1-cyclohexyl-2,2-dimethylpropan-1-ol",CC(C)(C)C(C1CCCCC1)O,559.34,11,"[1, 6, 8]",3,True,CHO,alcohol
10012,"2,2-dimethyl-1-phenylpropane-1,3-diol",CC(C)(CO)C(C1=CC=CC=C1)O,559.65,11,"[1, 6, 8]",3,True,CHO,aromatic
10013,"2-[[2,2-dimethyl-3-(oxiran-2-ylmethoxy)propoxy]methyl]oxirane",CC(C)(COCC1CO1)COCC2CO2,560.27,11,"[1, 6, 8]",3,True,CHO,ester
10014,ditert-butyl propanedioate,CC(C)(C)OC(=O)CC(=O)OC(C)(C)C,561.26,11,"[1, 6, 8]",3,True,CHO,ester
10015,"3,7-dimethylnona-2,6-dienenitrile",CCC(=CCCC(=CC#N)C)C,561.44,11,"[1, 6, 7]",3,True,CHN,alkene