,Name,SMILES,Tb,C Atom,Atom,Count Unique Atom,Pass Screen,Atom2,Func. Group
10387,"5-ethyl-2,5-dimethyloctane",CCCC(C)(CC)CCC(C)C,466.15,12,"[1, 6]",2,True,CH,alkane
10388,"3-ethyl-2,5,6-trimethylheptane",CCC(CC(C)C(C)C)C(C)C,466.15,12,"[1, 6]",2,True,CH,alkane
10389,"2,2,3,3,6-pentamethylheptane",CC(C)CCC(C)(C)C(C)(C)C,466.15,12,"[1, 6]",2,True,CH,alkane
10390,"4,5-diethyl-2-methylheptane",CCC(CC)C(CC)CC(C)C,466.15,12,"[1, 6]",2,True,CH,alkane
10391,"4-ethyl-2,2,3-trimethylheptane",CCCC(CC)C(C)C(C)(C)C,466.15,12,"[1, 6]",2,True,CH,alkane
10392,"2,3,6,6-tetramethyloctane",CCC(C)(C)CCC(C)C(C)C,466.15,12,"[1, 6]",2,True,CH,alkane
10393,"3,3,5,6-tetramethyloctane",CCC(C)C(C)CC(C)(C)CC,466.15,12,"[1, 6]",2,True,CH,alkane
10394,"trimethyl benzene-1,2,4-tricarboxylate",COC(=O)C1=CC(=C(C=C1)C(=O)OC)C(=O)OC,467.15,12,"[1, 6, 8]",3,True,CHO,ester
10395,"2,2,3,6-tetramethyloctane",CCC(C)CCC(C)C(C)(C)C,467.15,12,"[1, 6]",2,True,CH,alkane
10396,"2,2,3,7-tetramethyloctane",CC(C)CCCC(C)C(C)(C)C,467.15,12,"[1, 6]",2,True,CH,alkane
10397,4-methyl-5-propan-2-yloctane,CCCC(C)C(CCC)C(C)C,467.15,12,"[1, 6]",2,True,CH,alkane
10398,"5-ethyl-2,3-dimethyloctane",CCCC(CC)CC(C)C(C)C,467.15,12,"[1, 6]",2,True,CH,alkane
10399,"3-ethyl-2,5-dimethyloctane",CCCC(C)CC(CC)C(C)C,467.15,12,"[1, 6]",2,True,CH,alkane
10400,"2,4,7-trimethylnonane",CCC(C)CCC(C)CC(C)C,467.15,12,"[1, 6]",2,True,CH,alkane
10401,"2,5,7-trimethylnonane",CCC(C)CC(C)CCC(C)C,467.15,12,"[1, 6]",2,True,CH,alkane
10402,3-methyl-5-propyloctane,CCCC(CCC)CC(C)CC,467.15,12,"[1, 6]",2,True,CH,alkane
10403,"3-ethyl-2,2,3,5-tetramethylhexane",CCC(C)(CC(C)C)C(C)(C)C,467.15,12,"[1, 6]",2,True,CH,alkane
10404,"2,2,4,4-tetramethyl-3-propan-2-ylpentane",CC(C)C(C(C)(C)C)C(C)(C)C,467.15,12,"[1, 6]",2,True,CH,alkane
10405,"2,3-dimethyl-4-propylheptane",CCCC(CCC)C(C)C(C)C,467.15,12,"[1, 6]",2,True,CH,alkane
10406,"3,3-dimethyl-4-propan-2-ylheptane",CCCC(C(C)C)C(C)(C)CC,467.15,12,"[1, 6]",2,True,CH,alkane
10407,"5-ethyl-2,3,5-trimethylheptane",CCC(C)(CC)CC(C)C(C)C,467.15,12,"[1, 6]",2,True,CH,alkane
10408,"3-ethyl-2,4,4-trimethylheptane",CCCC(C)(C)C(CC)C(C)C,467.15,12,"[1, 6]",2,True,CH,alkane
10409,"2,2,3,3,5-pentamethylheptane",CCC(C)CC(C)(C)C(C)(C)C,467.15,12,"[1, 6]",2,True,CH,alkane
10410,"2,2,3,4,5-pentamethylheptane",CCC(C)C(C)C(C)C(C)(C)C,467.15,12,"[1, 6]",2,True,CH,alkane
10411,"3,5-dimethyl-4-propan-2-ylheptane",CCC(C)C(C(C)C)C(C)CC,467.15,12,"[1, 6]",2,True,CH,alkane
10412,"4,4-diethyl-2-methylheptane",CCCC(CC)(CC)CC(C)C,467.15,12,"[1, 6]",2,True,CH,alkane
10413,"4-ethyl-2,2,4-trimethylheptane",CCCC(C)(CC)CC(C)(C)C,467.15,12,"[1, 6]",2,True,CH,alkane
10414,"5-ethyl-2,3,3-trimethylheptane",CCC(CC)CC(C)(C)C(C)C,467.15,12,"[1, 6]",2,True,CH,alkane
10415,"2,3,3,5-tetramethyloctane",CCCC(C)CC(C)(C)C(C)C,467.15,12,"[1, 6]",2,True,CH,alkane
10416,"2,3,4,7-tetramethyloctane",CC(C)CCC(C)C(C)C(C)C,467.15,12,"[1, 6]",2,True,CH,alkane
10417,"2,4,5,6-tetramethyloctane",CCC(C)C(C)C(C)CC(C)C,467.15,12,"[1, 6]",2,True,CH,alkane
10418,"2,5,5,6-tetramethyloctane",CCC(C)C(C)(C)CCC(C)C,467.15,12,"[1, 6]",2,True,CH,alkane
10419,"2,3,5-trimethyl-3-propan-2-ylhexane",CC(C)CC(C)(C(C)C)C(C)C,467.15,12,"[1, 6]",2,True,CH,alkane
10420,"5-acetylspiro[1-benzofuran-2,1'-cyclopropane]-3-one",CC(=O)C1=CC2=C(C=C1)OC3(C2=O)CC3,467.15,12,"[1, 6, 8]",3,True,CHO,ester
10421,"1,2,3,4,5,6-hexamethylprismane",CC12C3(C1(C4(C2(C34C)C)C)C)C,467.6,12,"[1, 6]",2,True,CH,alkane
10422,"2,2,3,3-tetramethyloctane",CCCCCC(C)(C)C(C)(C)C,467.7,12,"[1, 6]",2,True,CH,alkane
10423,4-methyl-4-propyloctane,CCCCC(C)(CCC)CCC,468.15,12,"[1, 6]",2,True,CH,alkane
10424,"2,3,4,5,6-pentamethylheptane",CC(C)C(C)C(C)C(C)C(C)C,468.15,12,"[1, 6]",2,True,CH,alkane
10425,"2,2,3,3,5,5-hexamethylhexane",CC(C)(C)CC(C)(C)C(C)(C)C,468.15,12,"[1, 6]",2,True,CH,alkane
10426,"5-ethyl-2,6-dimethyloctane",CCC(C)C(CC)CCC(C)C,468.15,12,"[1, 6]",2,True,CH,alkane
10427,"2,2,3,4-tetramethyloctane",CCCCC(C)C(C)C(C)(C)C,468.15,12,"[1, 6]",2,True,CH,alkane
10428,3-methyl-4-propan-2-yloctane,CCCCC(C(C)C)C(C)CC,468.15,12,"[1, 6]",2,True,CH,alkane
10429,"3,3,7-trimethylnonane",CCC(C)CCCC(C)(C)CC,468.15,12,"[1, 6]",2,True,CH,alkane
10430,"3,5,7-trimethylnonane",CCC(C)CC(C)CC(C)CC,468.15,12,"[1, 6]",2,True,CH,alkane
10431,5-ethyl-3-methylnonane,CCCCC(CC)CC(C)CC,468.15,12,"[1, 6]",2,True,CH,alkane
10432,"2,2,7-trimethylnonane",CCC(C)CCCCC(C)(C)C,468.15,12,"[1, 6]",2,True,CH,alkane
10433,"2,2,8-trimethylnonane",CC(C)CCCCCC(C)(C)C,468.15,12,"[1, 6]",2,True,CH,alkane
10434,"2,4,5-trimethylnonane",CCCCC(C)C(C)CC(C)C,468.15,12,"[1, 6]",2,True,CH,alkane
10435,"3,4,4,6-tetramethyloctane",CCC(C)CC(C)(C)C(C)CC,468.15,12,"[1, 6]",2,True,CH,alkane
10436,3-ethyl-4-propan-2-ylheptane,CCCC(C(C)C)C(CC)CC,468.15,12,"[1, 6]",2,True,CH,alkane
10437,"4-ethyl-2,4,5-trimethylheptane",CCC(C)C(C)(CC)CC(C)C,468.15,12,"[1, 6]",2,True,CH,alkane
10438,"3,4-diethyl-2-methylheptane",CCCC(CC)C(CC)C(C)C,468.15,12,"[1, 6]",2,True,CH,alkane
10439,"3,5-diethyl-2-methylheptane",CCC(CC)CC(CC)C(C)C,468.15,12,"[1, 6]",2,True,CH,alkane
10440,"2,3,4,6-tetramethyloctane",CCC(C)CC(C)C(C)C(C)C,468.15,12,"[1, 6]",2,True,CH,alkane
10441,"2,3,5,5-tetramethyloctane",CCCC(C)(C)CC(C)C(C)C,468.15,12,"[1, 6]",2,True,CH,alkane
10442,"2,3,5,6-tetramethyloctane",CCC(C)C(C)CC(C)C(C)C,468.15,12,"[1, 6]",2,True,CH,alkane
10443,"2,3,3,4,6-pentamethylheptane",CC(C)CC(C)C(C)(C)C(C)C,468.15,12,"[1, 6]",2,True,CH,alkane
10444,"(E)-2,2,6,6-tetramethyl-5-methylidenehept-3-ene",CC(C)(C)/C=C/C(=C)C(C)(C)C,468.42,12,"[1, 6]",2,True,CH,alkene
10445,2-methyl-3-propan-2-yloctane,CCCCCC(C(C)C)C(C)C,469.15,12,"[1, 6]",2,True,CH,alkane
10446,"2,3,6,7-tetramethyloctane",CC(C)C(C)CCC(C)C(C)C,469.15,12,"[1, 6]",2,True,CH,alkane
10447,"3-ethyl-2,7-dimethyloctane",CCC(CCCC(C)C)C(C)C,469.15,12,"[1, 6]",2,True,CH,alkane
10448,"6-ethyl-3,3-dimethyloctane",CCC(CC)CCC(C)(C)CC,469.15,12,"[1, 6]",2,True,CH,alkane
10449,"3-ethyl-3,5-dimethyloctane",CCCC(C)CC(C)(CC)CC,469.15,12,"[1, 6]",2,True,CH,alkane
10450,"4-ethyl-3,6-dimethyloctane",CCC(C)CC(CC)C(C)CC,469.15,12,"[1, 6]",2,True,CH,alkane
10451,"5-ethyl-4,4-dimethyloctane",CCCC(CC)C(C)(C)CCC,469.15,12,"[1, 6]",2,True,CH,alkane
10452,4-methyl-5-propyloctane,CCCC(C)C(CCC)CCC,469.15,12,"[1, 6]",2,True,CH,alkane
10453,"3-ethyl-2,2-dimethyloctane",CCCCCC(CC)C(C)(C)C,469.15,12,"[1, 6]",2,True,CH,alkane
10454,"2,5,6-trimethylnonane",CCCC(C)C(C)CCC(C)C,469.15,12,"[1, 6]",2,True,CH,alkane
10455,5-ethyl-2-methylnonane,CCCCC(CC)CCC(C)C,469.15,12,"[1, 6]",2,True,CH,alkane
10456,4-ethyl-6-methylnonane,CCCC(C)CC(CC)CCC,469.15,12,"[1, 6]",2,True,CH,alkane
10457,"2,3,5-trimethylnonane",CCCCC(C)CC(C)C(C)C,469.15,12,"[1, 6]",2,True,CH,alkane
10458,"3,3-dimethyl-4-propylheptane",CCCC(CCC)C(C)(C)CC,469.15,12,"[1, 6]",2,True,CH,alkane
10459,"3,5-dimethyl-4-propylheptane",CCCC(C(C)CC)C(C)CC,469.15,12,"[1, 6]",2,True,CH,alkane
10460,"4-ethyl-2,3,5-trimethylheptane",CCC(C)C(CC)C(C)C(C)C,469.15,12,"[1, 6]",2,True,CH,alkane
10461,"3-ethyl-2,3,6-trimethylheptane",CCC(C)(CCC(C)C)C(C)C,469.15,12,"[1, 6]",2,True,CH,alkane
10462,"3-ethyl-2,4,5-trimethylheptane",CCC(C)C(C)C(CC)C(C)C,469.15,12,"[1, 6]",2,True,CH,alkane
10463,"2,3,3,6-tetramethyloctane",CCC(C)CCC(C)(C)C(C)C,469.15,12,"[1, 6]",2,True,CH,alkane
10464,"2,3,3,7-tetramethyloctane",CC(C)CCCC(C)(C)C(C)C,469.15,12,"[1, 6]",2,True,CH,alkane
10465,"2,3,4,4-tetramethyloctane",CCCCC(C)(C)C(C)C(C)C,469.15,12,"[1, 6]",2,True,CH,alkane
10466,"2,5,6,6-tetramethyloctane",CCC(C)(C)C(C)CCC(C)C,469.15,12,"[1, 6]",2,True,CH,alkane
10467,"3,3,4,6-tetramethyloctane",CCC(C)CC(C)C(C)(C)CC,469.15,12,"[1, 6]",2,True,CH,alkane
10468,"2,2,4,4,5-pentamethylheptane",CCC(C)C(C)(C)CC(C)(C)C,469.15,12,"[1, 6]",2,True,CH,alkane
10469,"2,4,4,5,5-pentamethylheptane",CCC(C)(C)C(C)(C)CC(C)C,469.15,12,"[1, 6]",2,True,CH,alkane
10470,"3-tert-butyl-2,2-dimethylhexane",CCCC(C(C)(C)C)C(C)(C)C,469.15,12,"[1, 6]",2,True,CH,alkane
10471,5-propylnonane,CCCCC(CCC)CCCC,470.15,12,"[1, 6]",2,True,CH,alkane
10472,"5,5-dimethyldecane",CCCCCC(C)(C)CCCC,470.15,12,"[1, 6]",2,True,CH,alkane
10473,"6-ethyl-2,5-dimethyloctane",CCC(CC)C(C)CCC(C)C,470.15,12,"[1, 6]",2,True,CH,alkane
10474,"3-ethyl-2,6-dimethyloctane",CCC(C)CCC(CC)C(C)C,470.15,12,"[1, 6]",2,True,CH,alkane
10475,"4-ethyl-3,5-dimethyloctane",CCCC(C)C(CC)C(C)CC,470.15,12,"[1, 6]",2,True,CH,alkane
10476,"3-ethyl-4,6-dimethyloctane",CCC(C)CC(C)C(CC)CC,470.15,12,"[1, 6]",2,True,CH,alkane
10477,"3,5-diethyloctane",CCCC(CC)CC(CC)CC,470.15,12,"[1, 6]",2,True,CH,alkane
10478,"4-ethyl-2,3-dimethyloctane",CCCCC(CC)C(C)C(C)C,470.15,12,"[1, 6]",2,True,CH,alkane
10479,"3-ethyl-2,4-dimethyloctane",CCCCC(C)C(CC)C(C)C,470.15,12,"[1, 6]",2,True,CH,alkane
10480,"2,7,7-trimethylnonane",CCC(C)(C)CCCCC(C)C,470.15,12,"[1, 6]",2,True,CH,alkane
10481,"3,4,6-trimethylnonane",CCCC(C)CC(C)C(C)CC,470.15,12,"[1, 6]",2,True,CH,alkane
10482,"3,5,6-trimethylnonane",CCCC(C)C(C)CC(C)CC,470.15,12,"[1, 6]",2,True,CH,alkane
10483,3-methyl-4-propyloctane,CCCCC(CCC)C(C)CC,470.15,12,"[1, 6]",2,True,CH,alkane
10484,"4-ethyl-2,2,4,5-tetramethylhexane",CCC(C)(CC(C)(C)C)C(C)C,470.15,12,"[1, 6]",2,True,CH,alkane
10485,"4-ethyl-2,3,3,5-tetramethylhexane",CCC(C(C)C)C(C)(C)C(C)C,470.15,12,"[1, 6]",2,True,CH,alkane
10486,"3,4,5,5-tetramethyloctane",CCCC(C)(C)C(C)C(C)CC,470.15,12,"[1, 6]",2,True,CH,alkane
10487,"5-ethyl-2,3,4-trimethylheptane",CCC(CC)C(C)C(C)C(C)C,470.15,12,"[1, 6]",2,True,CH,alkane
10488,"5-ethyl-2,4,5-trimethylheptane",CCC(C)(CC)C(C)CC(C)C,470.15,12,"[1, 6]",2,True,CH,alkane
10489,"4-ethyl-3,3,5-trimethylheptane",CCC(C)C(CC)C(C)(C)CC,470.15,12,"[1, 6]",2,True,CH,alkane
10490,"3,5-diethyl-3-methylheptane",CCC(CC)CC(C)(CC)CC,470.15,12,"[1, 6]",2,True,CH,alkane
10491,"2,3,4,5-tetramethyloctane",CCCC(C)C(C)C(C)C(C)C,470.15,12,"[1, 6]",2,True,CH,alkane
10492,"3,3,5,5-tetramethyloctane",CCCC(C)(C)CC(C)(C)CC,470.15,12,"[1, 6]",2,True,CH,alkane
10493,"2,3,4,5,5-pentamethylheptane",CCC(C)(C)C(C)C(C)C(C)C,470.15,12,"[1, 6]",2,True,CH,alkane
10494,"hexacyclo[5.4.1.02,6.03,10.04,8.09,12]dodecane",C1C2C3C4CC5C3C1C6C2C4C56,470.3,12,"[1, 6]",2,True,CH,alkane
10495,"hexacyclo[6.4.0.02,7.03,12.04,6.09,11]dodecane",C1C2C1C3C4C5CC5C6C2C3C64,470.3,12,"[1, 6]",2,True,CH,alkane
10496,10-methylundec-1-ene,CC(C)CCCCCCCC=C,470.4,12,"[1, 6]",2,True,CH,alkene
10497,8-methylundec-1-ene,CCCC(C)CCCCCC=C,470.4,12,"[1, 6]",2,True,CH,alkene
10498,7-methylundec-1-ene,CCCCC(C)CCCCC=C,470.4,12,"[1, 6]",2,True,CH,alkene
10499,"3-ethyl-2,3,5-trimethylheptane",CCC(C)CC(C)(CC)C(C)C,470.65,12,"[1, 6]",2,True,CH,alkane
10500,"2,6-dimethyldecane",CCCCC(C)CCCC(C)C,471.15,12,"[1, 6]",2,True,CH,alkane
10501,5-ethyl-5-methylnonane,CCCCC(C)(CC)CCCC,471.15,12,"[1, 6]",2,True,CH,alkane
10502,"4,6-dimethyldecane",CCCCC(C)CC(C)CCC,471.15,12,"[1, 6]",2,True,CH,alkane
10503,"2,5-dimethyldecane",CCCCCC(C)CCC(C)C,471.15,12,"[1, 6]",2,True,CH,alkane
10504,"6-ethyl-2,6-dimethyloctane",CCC(C)(CC)CCCC(C)C,471.15,12,"[1, 6]",2,True,CH,alkane
10505,"4-ethyl-3,3-dimethyloctane",CCCCC(CC)C(C)(C)CC,471.15,12,"[1, 6]",2,True,CH,alkane
10506,"5-ethyl-3,4-dimethyloctane",CCCC(CC)C(C)C(C)CC,471.15,12,"[1, 6]",2,True,CH,alkane
10507,"6-ethyl-3,4-dimethyloctane",CCC(C)C(C)CC(CC)CC,471.15,12,"[1, 6]",2,True,CH,alkane
10508,"3-ethyl-4,4-dimethyloctane",CCCCC(C)(C)C(CC)CC,471.15,12,"[1, 6]",2,True,CH,alkane
10509,4-methyl-4-propan-2-yloctane,CCCCC(C)(CCC)C(C)C,471.15,12,"[1, 6]",2,True,CH,alkane
10510,"3,3,6-trimethylnonane",CCCC(C)CCC(C)(C)CC,471.15,12,"[1, 6]",2,True,CH,alkane
10511,"4,4,5-trimethylnonane",CCCCC(C)C(C)(C)CCC,471.15,12,"[1, 6]",2,True,CH,alkane
10512,"4,5,5-trimethylnonane",CCCCC(C)(C)C(C)CCC,471.15,12,"[1, 6]",2,True,CH,alkane
10513,6-ethyl-2-methylnonane,CCCC(CC)CCCC(C)C,471.15,12,"[1, 6]",2,True,CH,alkane
10514,5-ethyl-4-methylnonane,CCCCC(CC)C(C)CCC,471.15,12,"[1, 6]",2,True,CH,alkane
10515,"2,3,6-trimethylnonane",CCCC(C)CCC(C)C(C)C,471.15,12,"[1, 6]",2,True,CH,alkane
10516,4-propan-2-ylnonane,CCCCCC(CCC)C(C)C,471.15,12,"[1, 6]",2,True,CH,alkane
10517,5-propan-2-ylnonane,CCCCC(CCCC)C(C)C,471.15,12,"[1, 6]",2,True,CH,alkane
10518,4-tert-butyl-4-methylheptane,CCCC(C)(CCC)C(C)(C)C,471.15,12,"[1, 6]",2,True,CH,alkane
10519,"3,4-dimethyl-4-propylheptane",CCCC(C)(CCC)C(C)CC,471.15,12,"[1, 6]",2,True,CH,alkane
10520,"4-ethyl-2,3,4-trimethylheptane",CCCC(C)(CC)C(C)C(C)C,471.15,12,"[1, 6]",2,True,CH,alkane
10521,"5,5-diethyl-2-methylheptane",CCC(CC)(CC)CCC(C)C,471.15,12,"[1, 6]",2,True,CH,alkane
10522,"3,4-diethyl-5-methylheptane",CCC(C)C(CC)C(CC)CC,471.15,12,"[1, 6]",2,True,CH,alkane
10523,"3,3,4,5-tetramethyloctane",CCCC(C)C(C)C(C)(C)CC,471.15,12,"[1, 6]",2,True,CH,alkane
10524,"4,5,6-trimethylnonane",CCCC(C)C(C)C(C)CCC,471.15,12,"[1, 6]",2,True,CH,alkane
10525,"(E)-2,2,3,4,5,5-hexamethylhex-3-ene",C/C(=C(/C)\C(C)(C)C)/C(C)(C)C,471.62,12,"[1, 6]",2,True,CH,alkene
10526,"(E)-2,2,4,6,6-pentamethylhept-3-ene",C/C(=C\C(C)(C)C)/CC(C)(C)C,471.74,12,"[1, 6]",2,True,CH,alkene
10527,"(Z)-2,2,4,6,6-pentamethylhept-3-ene",C/C(=C/C(C)(C)C)/CC(C)(C)C,471.74,12,"[1, 6]",2,True,CH,alkene
10528,"(Z)-2,2,7,7-tetramethyloct-4-ene",CC(C)(C)C/C=C\CC(C)(C)C,471.86,12,"[1, 6]",2,True,CH,alkene
10529,"(E)-2,2,7,7-tetramethyloct-4-ene",CC(C)(C)C/C=C/CC(C)(C)C,471.86,12,"[1, 6]",2,True,CH,alkene
10530,4-ethyl-5-methylnonane,CCCCC(C)C(CC)CCC,472.15,12,"[1, 6]",2,True,CH,alkane
10531,4-propylnonane,CCCCCC(CCC)CCC,472.15,12,"[1, 6]",2,True,CH,alkane
10532,"4,4-dimethyldecane",CCCCCCC(C)(C)CCC,472.15,12,"[1, 6]",2,True,CH,alkane
10533,4-ethyl-4-methylnonane,CCCCCC(C)(CC)CCC,472.15,12,"[1, 6]",2,True,CH,alkane
10534,"4,7-dimethyldecane",CCCC(C)CCC(C)CCC,472.15,12,"[1, 6]",2,True,CH,alkane
10535,"3-ethyl-3,6-dimethyloctane",CCC(C)CCC(C)(CC)CC,472.15,12,"[1, 6]",2,True,CH,alkane
10536,"3-ethyl-4,5-dimethyloctane",CCCC(C)C(C)C(CC)CC,472.15,12,"[1, 6]",2,True,CH,alkane
10537,"3,4-diethyloctane",CCCCC(CC)C(CC)CC,472.15,12,"[1, 6]",2,True,CH,alkane
10538,"6-ethyl-2,3-dimethyloctane",CCC(CC)CCC(C)C(C)C,472.15,12,"[1, 6]",2,True,CH,alkane
10539,"2,6,7-trimethylnonane",CCC(C)C(C)CCCC(C)C,472.15,12,"[1, 6]",2,True,CH,alkane
10540,6-ethyl-3-methylnonane,CCCC(CC)CCC(C)CC,472.15,12,"[1, 6]",2,True,CH,alkane
10541,3-ethyl-5-methylnonane,CCCCC(C)CC(CC)CC,472.15,12,"[1, 6]",2,True,CH,alkane
10542,"2,2,3,3,4,5-hexamethylhexane",CC(C)C(C)C(C)(C)C(C)(C)C,472.15,12,"[1, 6]",2,True,CH,alkane
10543,"3,4,5,6-tetramethyloctane",CCC(C)C(C)C(C)C(C)CC,472.15,12,"[1, 6]",2,True,CH,alkane
10544,"5-ethyl-3,3,4-trimethylheptane",CCC(CC)C(C)C(C)(C)CC,472.15,12,"[1, 6]",2,True,CH,alkane
10545,"3,3-diethyl-5-methylheptane",CCC(C)CC(CC)(CC)CC,472.15,12,"[1, 6]",2,True,CH,alkane
10546,"4-ethyl-2,3,3-trimethylheptane",CCCC(CC)C(C)(C)C(C)C,472.15,12,"[1, 6]",2,True,CH,alkane
10547,"(4E,7E,10E)-dodeca-1,4,7,10-tetraene",C/C=C/C/C=C/C/C=C/CC=C,473.15,12,"[1, 6]",2,True,CH,alkene
10548,"2,4-dimethyldecane",CCCCCCC(C)CC(C)C,473.15,12,"[1, 6]",2,True,CH,alkane
10549,"4,4-diethyloctane",CCCCC(CC)(CC)CCC,473.15,12,"[1, 6]",2,True,CH,alkane
10550,"3,5-dimethyldecane",CCCCCC(C)CC(C)CC,473.15,12,"[1, 6]",2,True,CH,alkane
10551,"3,4,7-trimethylnonane",CCC(C)CCC(C)C(C)CC,473.15,12,"[1, 6]",2,True,CH,alkane
10552,"2,2,3-trimethylnonane",CCCCCCC(C)C(C)(C)C,473.15,12,"[1, 6]",2,True,CH,alkane
10553,"4-ethyl-4,5-dimethyloctane",CCCC(C)C(C)(CC)CCC,473.15,12,"[1, 6]",2,True,CH,alkane
10554,"3,4,4-trimethylnonane",CCCCCC(C)(C)C(C)CC,473.15,12,"[1, 6]",2,True,CH,alkane
10555,"3,4,5-trimethylnonane",CCCCC(C)C(C)C(C)CC,473.15,12,"[1, 6]",2,True,CH,alkane
10556,3-ethyl-7-methylnonane,CCC(C)CCCC(CC)CC,473.15,12,"[1, 6]",2,True,CH,alkane
10557,3-ethyl-4-methylnonane,CCCCCC(C)C(CC)CC,473.15,12,"[1, 6]",2,True,CH,alkane
10558,3-ethyl-6-methylnonane,CCCC(C)CCC(CC)CC,473.15,12,"[1, 6]",2,True,CH,alkane
10559,"2,3,4-trimethylnonane",CCCCCC(C)C(C)C(C)C,473.15,12,"[1, 6]",2,True,CH,alkane
10560,"2,3,8-trimethylnonane",CC(C)CCCCC(C)C(C)C,473.15,12,"[1, 6]",2,True,CH,alkane
10561,"4,4-diethyl-2,2-dimethylhexane",CCC(CC)(CC)CC(C)(C)C,473.15,12,"[1, 6]",2,True,CH,alkane
10562,"3,3-diethyl-2,4-dimethylhexane",CCC(C)C(CC)(CC)C(C)C,473.15,12,"[1, 6]",2,True,CH,alkane
10563,"3,4-diethyl-2,4-dimethylhexane",CCC(C(C)C)C(C)(CC)CC,473.15,12,"[1, 6]",2,True,CH,alkane
10564,"3-ethyl-2,2,4,4-tetramethylhexane",CCC(C(C)(C)C)C(C)(C)CC,473.15,12,"[1, 6]",2,True,CH,alkane
10565,"4,4,5,5-tetramethyloctane",CCCC(C)(C)C(C)(C)CCC,473.15,12,"[1, 6]",2,True,CH,alkane
10566,"2,2,3,3,4-pentamethylheptane",CCCC(C)C(C)(C)C(C)(C)C,473.15,12,"[1, 6]",2,True,CH,alkane
10567,"3,5-diethyl-4-methylheptane",CCC(CC)C(C)C(CC)CC,473.15,12,"[1, 6]",2,True,CH,alkane
10568,"3-ethyl-2,2,3-trimethylheptane",CCCCC(C)(CC)C(C)(C)C,473.15,12,"[1, 6]",2,True,CH,alkane
10569,"2,3,3,4,5-pentamethylheptane",CCC(C)C(C)C(C)(C)C(C)C,473.15,12,"[1, 6]",2,True,CH,alkane
10570,"2,3,3,5,5-pentamethylheptane",CCC(C)(C)CC(C)(C)C(C)C,473.15,12,"[1, 6]",2,True,CH,alkane
10571,"2,3,4,4,5-pentamethylheptane",CCC(C)C(C)(C)C(C)C(C)C,473.15,12,"[1, 6]",2,True,CH,alkane
10572,3-ethyl-2-methyl-3-propan-2-ylhexane,CCCC(CC)(C(C)C)C(C)C,473.15,12,"[1, 6]",2,True,CH,alkane
10573,"3,3-diethyl-2,2-dimethylhexane",CCCC(CC)(CC)C(C)(C)C,473.15,12,"[1, 6]",2,True,CH,alkane
10574,"3-ethyl-3,4-dimethyloctane",CCCCC(C)C(C)(CC)CC,473.15,12,"[1, 6]",2,True,CH,alkane
10575,"5,6-dimethyldecane",CCCCC(C)C(C)CCCC,474.15,12,"[1, 6]",2,True,CH,alkane
10576,"2,2-dimethyldecane",CCCCCCCCC(C)(C)C,474.15,12,"[1, 6]",2,True,CH,alkane
10577,"3,6-dimethyldecane",CCCCC(C)CCC(C)CC,474.15,12,"[1, 6]",2,True,CH,alkane
10578,"4-ethyl-3,4-dimethyloctane",CCCCC(C)(CC)C(C)CC,474.15,12,"[1, 6]",2,True,CH,alkane
10579,4-ethyl-3-methylnonane,CCCCCC(CC)C(C)CC,474.15,12,"[1, 6]",2,True,CH,alkane
10580,"2,3,7-trimethylnonane",CCC(C)CCCC(C)C(C)C,474.15,12,"[1, 6]",2,True,CH,alkane
10581,3-ethyl-2-methylnonane,CCCCCCC(CC)C(C)C,474.15,12,"[1, 6]",2,True,CH,alkane
10582,"4-ethyl-2,2,3,3-tetramethylhexane",CCC(CC)C(C)(C)C(C)(C)C,474.15,12,"[1, 6]",2,True,CH,alkane
10583,"3-ethyl-2,3,4,5-tetramethylhexane",CCC(C)(C(C)C)C(C)C(C)C,474.15,12,"[1, 6]",2,True,CH,alkane
10584,"2,3-dimethyl-3-propan-2-ylheptane",CCCCC(C)(C(C)C)C(C)C,474.15,12,"[1, 6]",2,True,CH,alkane
10585,"3,4-dimethyl-4-propan-2-ylheptane",CCCC(C)(C(C)C)C(C)CC,474.15,12,"[1, 6]",2,True,CH,alkane
10586,"3,4-diethyl-3-methylheptane",CCCC(CC)C(C)(CC)CC,474.15,12,"[1, 6]",2,True,CH,alkane
10587,"3,4-diethyl-4-methylheptane",CCCC(C)(CC)C(CC)CC,474.15,12,"[1, 6]",2,True,CH,alkane
10588,"2,3,3,4-tetramethyloctane",CCCCC(C)C(C)(C)C(C)C,474.15,12,"[1, 6]",2,True,CH,alkane
10589,"3,4,4,5-tetramethyloctane",CCCC(C)C(C)(C)C(C)CC,474.15,12,"[1, 6]",2,True,CH,alkane
10590,"2,2,3-trimethyl-3-propan-2-ylhexane",CCCC(C)(C(C)C)C(C)(C)C,474.15,12,"[1, 6]",2,True,CH,alkane
10591,"1,2,4-tris(ethenyl)cyclohexane",C=CC1CCC(C(C1)C=C)C=C,474.41,12,"[1, 6]",2,True,CH,alkene
10592,"9-propan-2-ylidenepentacyclo[4.3.0.02,4.03,8.05,7]nonane",CC(=C1C2C3C4C3C1C5C4C52)C,474.75,12,"[1, 6]",2,True,CH,alkene
10593,5-ethyldecane,CCCCCC(CC)CCCC,475.15,12,"[1, 6]",2,True,CH,alkane
10594,"4,5-dimethyldecane",CCCCCC(C)C(C)CCC,475.15,12,"[1, 6]",2,True,CH,alkane
10595,"2,7-dimethyldecane",CCCC(C)CCCCC(C)C,475.15,12,"[1, 6]",2,True,CH,alkane
10596,"3,7-dimethyldecane",CCCC(C)CCCC(C)CC,475.15,12,"[1, 6]",2,True,CH,alkane
10597,"3-ethyl-2,3-dimethyloctane",CCCCCC(C)(CC)C(C)C,475.15,12,"[1, 6]",2,True,CH,alkane
10598,"3,3,4-trimethylnonane",CCCCCC(C)C(C)(C)CC,475.15,12,"[1, 6]",2,True,CH,alkane
10599,7-ethyl-2-methylnonane,CCC(CC)CCCCC(C)C,475.15,12,"[1, 6]",2,True,CH,alkane
10600,"2,3,3-trimethylnonane",CCCCCCC(C)(C)C(C)C,475.15,12,"[1, 6]",2,True,CH,alkane
10601,"3-ethyl-3,5,5-trimethylheptane",CCC(C)(C)CC(C)(CC)CC,475.15,12,"[1, 6]",2,True,CH,alkane
10602,"3-ethyl-4,4,5-trimethylheptane",CCC(C)C(C)(C)C(CC)CC,475.15,12,"[1, 6]",2,True,CH,alkane
10603,"3-ethyl-3,4,5-trimethylheptane",CCC(C)C(C)C(C)(CC)CC,475.15,12,"[1, 6]",2,True,CH,alkane
10604,"2,2,3,4,4-pentamethylheptane",CCCC(C)(C)C(C)C(C)(C)C,475.15,12,"[1, 6]",2,True,CH,alkane
10605,"3,3,4,4-tetramethyloctane",CCCCC(C)(C)C(C)(C)CC,475.15,12,"[1, 6]",2,True,CH,alkane