,Name,SMILES,Tb,C Atom,Atom,Count Unique Atom,Pass Screen,Atom2,Func. Group
6984,"2-(hydroxymethyl)-2-(prop-2-enoxymethyl)propane-1,3-diol",C=CCOCC(CO)(CO)CO,675.05,8,"[1, 6, 8]",3,True,CHO,ester
6985,"(2E,4E)-2,5-dimethylhexa-2,4-dienedioic acid",C/C(=C\C=C(\C(=O)O)/C)/C(=O)O,681.74,8,"[1, 6, 8]",3,True,CHO,alkene
6986,3-[2-(2-cyanoethylamino)ethylamino]propanenitrile,C(CNCCNCCC#N)C#N,687.14,8,"[1, 6, 7]",3,True,CHN,amine
6987,"cyclohex-4-ene-1,2-dicarboxylic acid",C1C=CCC(C1C(=O)O)C(=O)O,687.7,8,"[1, 6, 8]",3,True,CHO,alkene
6988,"cyclohexane-1,2-dicarboxylic acid",C1CCC(C(C1)C(=O)O)C(=O)O,688.54,8,"[1, 6, 8]",3,True,CHO,alcohol
6989,"cyclohexane-1,3-dicarboxylic acid",C1CC(CC(C1)C(=O)O)C(=O)O,688.54,8,"[1, 6, 8]",3,True,CHO,alcohol
6990,"cyclohexane-1,1-dicarboxylic acid",C1CCC(CC1)(C(=O)O)C(=O)O,693.45,8,"[1, 6, 8]",3,True,CHO,alcohol
6991,4-[butyl(nitroso)amino]-3-hydroxybutanoic acid,CCCCN(CC(CC(=O)O)O)N=O,695.73,8,"[1, 6, 7, 8]",4,True,CHON,alcohol
6992,4-[2-(2-hydroxyethoxy)ethoxy]-4-oxobutanoic acid,C(CC(=O)OCCOCCO)C(=O)O,700.97,8,"[1, 6, 8]",3,True,CHO,carboxylic_acid
6993,"5-(2-methylpropyl)-1,3-diazinane-2,4,6-trione",CC(C)CC1C(=O)NC(=O)NC1=O,702.31,8,"[1, 6, 7, 8]",4,True,CHON,amide
6994,"5-butyl-1,3-diazinane-2,4,6-trione",CCCCC1C(=O)NC(=O)NC1=O,702.75,8,"[1, 6, 7, 8]",4,True,CHON,amide
6995,2-(2-aminopropanoylamino)-3-methylbutanoic acid,CC(C)C(C(=O)O)NC(=O)C(C)N,703.4,8,"[1, 6, 7, 8]",4,True,CHON,carboxylic_acid
6996,2-[(2-amino-4-methylpentanoyl)amino]acetic acid,CC(C)CC(C(=O)NCC(=O)O)N,703.84,8,"[1, 6, 7, 8]",4,True,CHON,carboxylic_acid
6997,2-[(2-aminoacetyl)amino]-4-methylpentanoic acid,CC(C)CC(C(=O)O)NC(=O)CN,703.84,8,"[1, 6, 7, 8]",4,True,CHON,carboxylic_acid
6998,2-(2-aminopropanoylamino)pentanoic acid,CCCC(C(=O)O)NC(=O)C(C)N,703.84,8,"[1, 6, 7, 8]",4,True,CHON,carboxylic_acid
6999,"7-oxabicyclo[2.2.1]heptane-2,3-dicarboxylic acid",C1CC2C(C(C1O2)C(=O)O)C(=O)O,709.02,8,"[1, 6, 8]",3,True,CHO,carboxylic_acid
7000,"1-(2,5-dioxopyrrolidin-1-yl)pyrrolidine-2,5-dione",C1CC(=O)N(C1=O)N2C(=O)CCC2=O,710.16,8,"[1, 6, 7, 8]",4,True,CHON,amide
7001,3-(2-aminopropyl)phenol,CC(CC1=CC(=CC=C1)O)N,282.65,9,"[1, 6, 7, 8]",4,True,CHON,alcohol
7002,2-ethylbutyl prop-2-enoate,CCC(CC)COC(=O)C=C,283.15,9,"[1, 6, 8]",3,True,CHO,ester
7003,"2-amino-9-(3,4-dihydroxybutyl)-1H-purin-6-one",C1=NC2=C(N1CCC(CO)O)N=C(NC2=O)N,303.25,9,"[1, 6, 7, 8]",4,True,CHON,aromatic
7004,3-(ethylamino)-4-methylphenol,CCNC1=C(C=CC(=C1)O)C,309.25,9,"[1, 6, 7, 8]",4,True,CHON,alcohol
7005,"2,3-dimethylheptan-3-ol",CCCCC(C)(C(C)C)O,315.15,9,"[1, 6, 8]",3,True,CHO,alcohol
7006,2-butan-2-yl-3-methoxypyrazine,CCC(C)C1=NC=CN=C1OC,323.15,9,"[1, 6, 7, 8]",4,True,CHON,ester
7007,dibutylcyanamide,CCCCN(CCCC)C#N,327.15,9,"[1, 6, 7]",3,True,CHN,amine
7008,(2-methylcyclohexyl) acetate,CC1CCCCC1OC(=O)C,328.15,9,"[1, 6, 8]",3,True,CHO,ester
7009,"2,6-dimethylheptane-3,5-dione",CC(C)C(=O)CC(=O)C(C)C,339.15,9,"[1, 6, 8]",3,True,CHO,ketone
7010,"3-methylidene-3a,4,5,6,7,7a-hexahydro-1-benzofuran-2-one",C=C1C2CCCCC2OC1=O,343.15,9,"[1, 6, 8]",3,True,CHO,ester
7011,2-bicyclo[2.2.1]heptanyl acetate,CC(=O)OC1CC2CCC1C2,346.65,9,"[1, 6, 8]",3,True,CHO,ester
7012,4-pent-4-ynylmorpholine,C#CCCCN1CCOCC1,349.15,9,"[1, 6, 7, 8]",4,True,CHON,ester
7013,N-methyloctan-1-amine,CCCCCCCCNC,351.65,9,"[1, 6, 7]",3,True,CHN,amine
7014,"N,N-bis(prop-2-ynyl)prop-2-yn-1-amine",C#CCN(CC#C)CC#C,355.15,9,"[1, 6, 7]",3,True,CHN,alkyne
7015,1-(2-prop-2-enoxyethoxy)butane,CCCCOCCOCC=C,356.65,9,"[1, 6, 8]",3,True,CHO,ester
7016,"2-isocyanato-1,3-dimethylbenzene",CC1=C(C(=CC=C1)C)N=C=O,356.65,9,"[1, 6, 7, 8]",4,True,CHON,aromatic
7017,1-(2-bicyclo[2.2.1]hept-5-enyl)ethanone,CC(=O)C1CC2CC1C=C2,357.65,9,"[1, 6, 8]",3,True,CHO,alkene
7018,1-nitroso-1-octylurea,CCCCCCCCN(C(=O)N)N=O,358.15,9,"[1, 6, 7, 8]",4,True,CHON,amide
7019,3-cyclohexylpropanal,C1CCC(CC1)CCC=O,360.15,9,"[1, 6, 8]",3,True,CHO,aldehyde
7020,1-(1H-benzimidazol-2-yl)-3-methylurea,CNC(=O)NC1=NC2=CC=CC=C2N1,361.55,9,"[1, 6, 7, 8]",4,True,CHON,aromatic
7021,"2,2-dimethylheptan-1-ol",CCCCCC(C)(C)CO,361.65,9,"[1, 6, 8]",3,True,CHO,alcohol
7022,1-ethynyl-2-methoxybenzene,COC1=CC=CC=C1C#C,365.15,9,"[1, 6, 8]",3,True,CHO,ester
7023,"2,3,5-trimethylcyclohexa-2,5-diene-1,4-dione",CC1=CC(=O)C(=C(C1=O)C)C,366.15,9,"[1, 6, 8]",3,True,CHO,alkene
7024,ethyl 1-methylpiperidine-2-carboxylate,CCOC(=O)C1CCCCN1C,367.15,9,"[1, 6, 7, 8]",4,True,CHON,ester
7025,1-benzofuran-2-carbaldehyde,C1=CC=C2C(=C1)C=C(O2)C=O,368.15,9,"[1, 6, 8]",3,True,CHO,aromatic
7026,"6,6-dimethylbicyclo[3.1.1]heptan-2-one",CC1(C2CCC(=O)C1C2)C,368.15,9,"[1, 6, 8]",3,True,CHO,ketone
7027,"(2E,6Z)-nona-2,6-dien-1-ol",CC/C=C\CC/C=C/CO,369.65,9,"[1, 6, 8]",3,True,CHO,alkene
7028,"nona-2,6-dien-1-ol",CCC=CCCC=CCO,373.15,9,"[1, 6, 8]",3,True,CHO,alkene
7029,(E)-non-2-enal,CCCCCC/C=C/C=O,374.15,9,"[1, 6, 8]",3,True,CHO,alkene
7030,"1-(furan-3-yl)pentane-1,4-dione",CC(=O)CCC(=O)C1=COC=C1,374.75,9,"[1, 6, 8]",3,True,CHO,aromatic
7031,non-3-yn-1-ol,CCCCCC#CCCO,376.4,9,"[1, 6, 8]",3,True,CHO,alkyne
7032,1-O-ethyl 4-O-(oxiran-2-ylmethyl) (Z)-but-2-enedioate,CCOC(=O)/C=C\C(=O)OCC1CO1,377.15,9,"[1, 6, 8]",3,True,CHO,ester
7033,"nonane-4,6-dione",CCCC(=O)CC(=O)CCC,377.65,9,"[1, 6, 8]",3,True,CHO,ketone
7034,ethyl spiro[2.3]hexane-2-carboxylate,CCOC(=O)C1CC12CCC2,378.15,9,"[1, 6, 8]",3,True,CHO,ester
7035,ethyl 2-oxocyclohexane-1-carboxylate,CCOC(=O)C1CCCCC1=O,379.65,9,"[1, 6, 8]",3,True,CHO,ester
7036,1-methoxy-4-(methoxymethyl)benzene,COCC1=CC=C(C=C1)OC,380.65,9,"[1, 6, 8]",3,True,CHO,ester
7037,"1-(2,6-dimethylpyridin-3-yl)ethanone",CC1=NC(=C(C=C1)C(=O)C)C,381.15,9,"[1, 6, 7, 8]",4,True,CHON,aromatic
7038,1-(furan-2-yl)pentan-1-one,CCCCC(=O)C1=CC=CO1,381.65,9,"[1, 6, 8]",3,True,CHO,aromatic
7039,1-ethoxy-4-isocyanatobenzene,CCOC1=CC=C(C=C1)N=C=O,383.15,9,"[1, 6, 7, 8]",4,True,CHON,ester
7040,N-(4-hydroxyphenyl)-N-methylacetamide,CC(=O)N(C)C1=CC=C(C=C1)O,383.83,9,"[1, 6, 7, 8]",4,True,CHON,amide
7041,3-(1H-pyrrol-2-yl)pyridine,C1=CC(=CN=C1)C2=CC=CN2,388.45,9,"[1, 6, 7]",3,True,CHN,aromatic
7042,"3,3-bis(ethenyl)penta-1,4-diene",C=CC(C=C)(C=C)C=C,389.01,9,"[1, 6]",2,True,CH,alkene
7043,"2-methyl-2,3-dihydro-1H-indole",CC1CC2=CC=CC=C2N1,389.15,9,"[1, 6, 7]",3,True,CHN,aromatic
7044,"2-benzyl-1,3,4-oxadiazole",C1=CC=C(C=C1)CC2=NN=CO2,393.15,9,"[1, 6, 7, 8]",4,True,CHON,aromatic
7045,3-(4-methoxyphenyl)-1-methyl-1-nitrosourea,CN(C(=O)NC1=CC=C(C=C1)OC)N=O,393.15,9,"[1, 6, 7, 8]",4,True,CHON,ester
7046,N-(6-acetamidopyridin-2-yl)acetamide,CC(=O)NC1=NC(=CC=C1)NC(=O)C,393.65,9,"[1, 6, 7, 8]",4,True,CHON,aromatic
7047,"2,4-dimethylheptan-3-one",CCCC(C)C(=O)C(C)C,396.15,9,"[1, 6, 8]",3,True,CHO,ketone
7048,4-propan-2-ylcyclohexan-1-ol,CC(C)C1CCC(CC1)O,396.15,9,"[1, 6, 8]",3,True,CHO,alcohol
7049,3-(2-ethylbutoxy)propanoic acid,CCC(CC)COCCC(=O)O,397.5,9,"[1, 6, 8]",3,True,CHO,carboxylic_acid
7050,"1,4,5,5-tetramethylcyclopenta-1,3-diene",CC1=CC=C(C1(C)C)C,398.15,9,"[1, 6]",2,True,CH,alkene
7051,"(2,3-dimethylphenyl)methanol",CC1=C(C(=CC=C1)CO)C,398.15,9,"[1, 6, 8]",3,True,CHO,aromatic
7052,2-propylbenzotriazole,CCCN1N=C2C=CC=CC2=N1,398.15,9,"[1, 6, 7]",3,True,CHN,aromatic
7053,"N,N-bis(prop-2-ynyl)propan-1-amine",CCCN(CC#C)CC#C,398.2,9,"[1, 6, 7]",3,True,CHN,alkyne
7054,"2,6-dimethylhepta-1,6-diene",CC(=C)CCCC(=C)C,398.64,9,"[1, 6]",2,True,CH,alkene
7055,"2,4,4-trimethylhex-1-ene",CCC(C)(C)CC(=C)C,398.85,9,"[1, 6]",2,True,CH,alkene
7056,4-methyl-3-propan-2-ylpent-3-en-1-yne,CC(C)C(=C(C)C)C#C,399.12,9,"[1, 6]",2,True,CH,alkene
7057,2-tert-butylperoxy-2-methylbutane,CCC(C)(C)OOC(C)(C)C,399.15,9,"[1, 6, 8]",3,True,CHO,ester
7058,"pentacyclo[4.3.0.02,5.03,8.04,7]nonane",C1C2C3C4C1C5C2C3C45,399.59,9,"[1, 6]",2,True,CH,alkane
7059,"pentacyclo[4.3.0.02,4.03,8.05,7]nonane",C1C2C3C4C1C5C2C5C34,399.59,9,"[1, 6]",2,True,CH,alkane
7060,"1,2,3,4-tetramethylcyclopentane",CC1CC(C(C1C)C)C,400.55,9,"[1, 6]",2,True,CH,alkane
7061,"2,4-dimethylhept-1-ene",CCCC(C)CC(=C)C,401.64,9,"[1, 6]",2,True,CH,alkene
7062,4-methyloct-1-ene,CCCCC(C)CC=C,401.76,9,"[1, 6]",2,True,CH,alkene
7063,2-cyano-2-cyclohexylideneacetic acid,C1CCC(=C(C#N)C(=O)O)CC1,402.65,9,"[1, 6, 7, 8]",4,True,CHON,alkene
7064,"(3E)-2,6-dimethylhepta-1,3,6-triene",CC(=C)C/C=C/C(=C)C,402.8,9,"[1, 6]",2,True,CH,alkene
7065,2-[2-(2-methoxyethoxy)ethoxy]ethyl acetate,CC(=O)OCCOCCOCCOC,403.15,9,"[1, 6, 8]",3,True,CHO,ester
7066,"ethyl N,N-dipropylcarbamate",CCCN(CCC)C(=O)OCC,403.15,9,"[1, 6, 7, 8]",4,True,CHON,ester
7067,"3-methylidenetetracyclo[3.3.0.02,8.04,6]octane",C=C1C2C3C2C4C1C4C3,405.22,9,"[1, 6]",2,True,CH,alkene
7068,"(3E)-3-ethyl-2-methylhexa-1,3-diene",CC/C=C(\CC)/C(=C)C,406.12,9,"[1, 6]",2,True,CH,alkene
7069,"(E)-2,2,4-trimethylhex-3-ene",CC/C(=C/C(C)(C)C)/C,406.33,9,"[1, 6]",2,True,CH,alkene
7070,"(3E)-nona-1,3-diene",CCCCC/C=C/C=C,406.36,9,"[1, 6]",2,True,CH,alkene
7071,"(E)-2,2-dimethylhept-3-ene",CCC/C=C/C(C)(C)C,406.45,9,"[1, 6]",2,True,CH,alkene
7072,"3,5,5-trimethylcyclohexene",CC1CC(CC=C1)(C)C,406.73,9,"[1, 6]",2,True,CH,alkene
7073,"3-ethyl-1,1-dimethylcyclopentane",CCC1CCC(C1)(C)C,407.15,9,"[1, 6]",2,True,CH,alkane
7074,(4-ethoxyphenyl)methanol,CCOC1=CC=C(C=C1)CO,407.65,9,"[1, 6, 8]",3,True,CHO,ester
7075,"1,1,4-trimethylcyclohexane",CC1CCC(CC1)(C)C,407.7,9,"[1, 6]",2,True,CH,alkane
7076,N-propyl-N-prop-2-ynylpropan-1-amine,CCCN(CCC)CC#C,408.08,9,"[1, 6, 7]",3,True,CHN,alkyne
7077,"(3E,5E,7E)-nona-3,5,7-trien-1-yne",C/C=C/C=C/C=C/C#C,408.12,9,"[1, 6]",2,True,CH,alkene
7078,(E)-non-2-enoic acid,CCCCCC/C=C/C(=O)O,408.15,9,"[1, 6, 8]",3,True,CHO,alkene
7079,"2,4-dimethylheptan-2-ol",CCCC(C)CC(C)(C)O,408.15,9,"[1, 6, 8]",3,True,CHO,alcohol
7080,(3-methylphenyl) N-methyl-N-nitrosocarbamate,CC1=CC(=CC=C1)OC(=O)N(C)N=O,408.35,9,"[1, 6, 7, 8]",4,True,CHON,ester
7081,"(E)-3,5-dimethylhept-3-ene",CCC(C)/C=C(\C)/CC,409.12,9,"[1, 6]",2,True,CH,alkene
7082,(E)-2-methyloct-3-ene,CCCC/C=C/C(C)C,409.24,9,"[1, 6]",2,True,CH,alkene
7083,"(E)-3,4-dimethylhept-3-ene",CCC/C(=C(\C)/CC)/C,409.44,9,"[1, 6]",2,True,CH,alkene
7084,(Z)-non-2-ene,CCCCCC/C=C\C,409.68,9,"[1, 6]",2,True,CH,alkene
7085,non-3-ene,CCCCCC=CCC,409.68,9,"[1, 6]",2,True,CH,alkene
7086,"tetracyclo[3.3.1.02,8.04,6]nonane",C1C2C3C2CC4C1C4C3,410.33,9,"[1, 6]",2,True,CH,alkane
7087,"tetracyclo[6.1.0.02,4.05,7]nonane",C1C2C1C3CC3C4C2C4,410.33,9,"[1, 6]",2,True,CH,alkane
7088,3-phenylprop-2-yn-1-ol,C1=CC=C(C=C1)C#CCO,410.65,9,"[1, 6, 8]",3,True,CHO,alkyne
7089,non-2-ene,CCCCCCC=CC,410.65,9,"[1, 6]",2,True,CH,alkene
7090,"4,4,5-trimethylhex-2-yne",CC#CC(C)(C)C(C)C,410.85,9,"[1, 6]",2,True,CH,alkyne
7091,"N,N-bis(prop-2-enyl)propan-2-amine",CC(C)N(CC=C)CC=C,410.88,9,"[1, 6, 7]",3,True,CHN,alkene
7092,2-methyloct-1-en-3-yne,CCCCC#CC(=C)C,411.08,9,"[1, 6]",2,True,CH,alkene
7093,"2-ethyl-1,1-dimethylcyclopentane",CCC1CCCC1(C)C,411.15,9,"[1, 6]",2,True,CH,alkane
7094,non-1-en-4-yne,CCCCC#CCC=C,411.2,9,"[1, 6]",2,True,CH,alkene
7095,non-1-en-3-yne,CCCCCC#CC=C,411.2,9,"[1, 6]",2,True,CH,alkene
7096,"5,5-dimethylhept-3-yne",CCC#CC(C)(C)CC,411.29,9,"[1, 6]",2,True,CH,alkyne
7097,"4,4-dimethylhept-2-yne",CCCC(C)(C)C#CC,411.29,9,"[1, 6]",2,True,CH,alkyne
7098,"1,1-dimethyl-2-(2-methylprop-1-enyl)cyclopropane",CC(=CC1CC1(C)C)C,411.87,9,"[1, 6]",2,True,CH,alkene
7099,"1-(1,3-benzodioxol-5-yl)ethanone",CC(=O)C1=CC2=C(C=C1)OCO2,412.15,9,"[1, 6, 8]",3,True,CHO,ester
7100,"N,N-di(propan-2-yl)propan-2-amine",CC(C)N(C(C)C)C(C)C,412.15,9,"[1, 6, 7]",3,True,CHN,amine
7101,"1,6-dimethyltricyclo[4.1.0.02,7]hept-3-ene",CC12CC=CC3C1C23C,412.17,9,"[1, 6]",2,True,CH,alkene
7102,4-(morpholin-4-ylmethyl)morpholine,C1COCCN1CN2CCOCC2,412.65,9,"[1, 6, 7, 8]",4,True,CHON,ester
7103,"2,6-dimethylhepta-2,5-diene",CC(=CCC=C(C)C)C,413.6,9,"[1, 6]",2,True,CH,alkene
7104,"(2E,4E)-nona-2,4-diene",CCCC/C=C/C=C/C,413.84,9,"[1, 6]",2,True,CH,alkene
7105,"2,3-dimethylbicyclo[2.2.1]heptane",CC1C(C2CCC1C2)C,413.93,9,"[1, 6]",2,True,CH,alkane
7106,7-methyloct-3-yne,CCC#CCCC(C)C,414.08,9,"[1, 6]",2,True,CH,alkyne
7107,"2,6-dimethylhepta-2,4-diene",CC(C)C=CC=C(C)C,414.15,9,"[1, 6]",2,True,CH,alkene
7108,N-tert-butyl-2-methylbut-3-en-2-amine,CC(C)(C)NC(C)(C)C=C,414.15,9,"[1, 6, 7]",3,True,CHN,alkene
7109,N-prop-2-enyl-N-propylpropan-1-amine,CCCN(CCC)CC=C,414.64,9,"[1, 6, 7]",3,True,CHN,alkene
7110,"8-methylidenetricyclo[3.2.1.02,4]oct-6-ene",C=C1C2C=CC1C3C2C3,415.12,9,"[1, 6]",2,True,CH,alkene
7111,"1,2,3-trimethylcyclohexane",CC1CCCC(C1C)C,415.15,9,"[1, 6]",2,True,CH,alkane
7112,methyl 4-cyanobenzoate,COC(=O)C1=CC=C(C=C1)C#N,415.15,9,"[1, 6, 7, 8]",4,True,CHON,ester
7113,"1,2,3,4-tetramethylcyclopenta-1,3-diene",CC1=C(C(=C(C1)C)C)C,415.15,9,"[1, 6]",2,True,CH,alkene
7114,(E)-7-methyloct-3-ene,CC/C=C/CCC(C)C,415.15,9,"[1, 6]",2,True,CH,alkene
7115,4-prop-1-en-2-ylphenol,CC(=C)C1=CC=C(C=C1)O,415.65,9,"[1, 6, 8]",3,True,CHO,alkene
7116,1-methyl-3-propan-2-ylcyclopentane,CC1CCC(C1)C(C)C,415.69,9,"[1, 6]",2,True,CH,alkane
7117,7-methyloct-2-ene,CC=CCCCC(C)C,415.7,9,"[1, 6]",2,True,CH,alkene
7118,"8-methylidenetricyclo[3.2.1.02,4]octane",C=C1C2CCC1C3C2C3,415.96,9,"[1, 6]",2,True,CH,alkene
7119,hexan-2-ylcyclopropane,CCCCC(C)C1CC1,416.1,9,"[1, 6]",2,True,CH,alkane
7120,1-methyl-2-propan-2-ylcyclopentane,CC1CCCC1C(C)C,416.15,9,"[1, 6]",2,True,CH,alkane
7121,"1,1,2,2-tetramethylcyclopentane",CC1(CCCC1(C)C)C,416.61,9,"[1, 6]",2,True,CH,alkane
7122,"1,3-dimethyltricyclo[4.1.0.02,7]hept-3-ene",CC1=CCC2C3C1C23C,416.91,9,"[1, 6]",2,True,CH,alkene
7123,N-tert-butyl-2-methylbutan-2-amine,CCC(C)(C)NC(C)(C)C,417.15,9,"[1, 6, 7]",3,True,CHN,amine
7124,2-benzamidooxyacetic acid,C1=CC=C(C=C1)C(=O)NOCC(=O)O,417.65,9,"[1, 6, 7, 8]",4,True,CHON,carboxylic_acid
7125,non-4-ene,CCCCC=CCCC,418.15,9,"[1, 6]",2,True,CH,alkene
7126,"3,4,4a,5,6,7,8,8a-octahydrochromen-2-one",C1CCC2C(C1)CCC(=O)O2,418.15,9,"[1, 6, 8]",3,True,CHO,ester
7127,2-(2-phenoxyethyl)guanidine,C1=CC=C(C=C1)OCCN=C(N)N,418.15,9,"[1, 6, 7, 8]",4,True,CHON,ester
7128,3-methyloct-2-ene,CCCCCC(=CC)C,418.15,9,"[1, 6]",2,True,CH,alkene
7129,5-ethylhept-4-en-2-yne,CCC(=CC#CC)CC,418.56,9,"[1, 6]",2,True,CH,alkene
7130,2-ethylbicyclo[2.2.1]heptane,CCC1CC2CCC1C2,418.6,9,"[1, 6]",2,True,CH,alkane
7131,(Z)-non-4-en-2-yne,CCCC/C=C\C#CC,418.68,9,"[1, 6]",2,True,CH,alkene
7132,(E)-non-4-en-2-yne,CCCC/C=C/C#CC,418.68,9,"[1, 6]",2,True,CH,alkene
7133,"7,7-dimethylbicyclo[2.2.1]heptane",CC1(C2CCC1CC2)C,418.84,9,"[1, 6]",2,True,CH,alkane
7134,1-methyl-1-propylcyclopentane,CCCC1(CCCC1)C,419.15,9,"[1, 6]",2,True,CH,alkane
7135,"tricyclo[3.2.2.02,4]nona-6,8-diene",C1C2C1C3C=CC2C=C3,419.39,9,"[1, 6]",2,True,CH,alkene
7136,"tricyclo[3.3.1.02,8]nona-3,6-diene",C1C2C=CC3C1C3C=C2,419.39,9,"[1, 6]",2,True,CH,alkene
7137,"tricyclo[4.2.1.02,5]nona-3,7-diene",C1C2C=CC1C3C2C=C3,419.39,9,"[1, 6]",2,True,CH,alkene
7138,"tricyclo[4.2.1.03,9]nona-4,7-diene",C1C2C=CC3C2C1C=C3,419.39,9,"[1, 6]",2,True,CH,alkene
7139,(E)-non-2-ene,CCCCCC/C=C/C,420.15,9,"[1, 6]",2,True,CH,alkene
7140,"tricyclo[3.2.2.02,4]non-6-ene",C1CC2C=CC1C3C2C3,420.23,9,"[1, 6]",2,True,CH,alkene
7141,"tricyclo[4.2.1.02,5]non-7-ene",C1CC2C1C3CC2C=C3,420.23,9,"[1, 6]",2,True,CH,alkene
7142,"tricyclo[4.2.1.02,5]non-3-ene",C1CC2CC1C3C2C=C3,420.23,9,"[1, 6]",2,True,CH,alkene
7143,"tricyclo[6.1.0.03,5]non-6-ene",C1C2CC2C=CC3C1C3,420.23,9,"[1, 6]",2,True,CH,alkene
7144,"tricyclo[6.1.0.02,4]non-5-ene",C1C=CC2CC2C3C1C3,420.23,9,"[1, 6]",2,True,CH,alkene
7145,1-ethyl-3-methylcyclohexane,CCC1CCCC(C1)C,420.4,9,"[1, 6]",2,True,CH,alkane
7146,"(2E,4E,6E)-7-(dimethylamino)hepta-2,4,6-trienal",CN(C)/C=C/C=C/C=C/C=O,420.43,9,"[1, 6, 7, 8]",4,True,CHON,aldehyde
7147,4-methyl-2-prop-1-en-2-yloxypent-1-ene,CC(C)CC(=C)OC(=C)C,420.62,9,"[1, 6, 8]",3,True,CHO,ester
7148,"5,6-dimethylidenebicyclo[2.2.1]hept-2-ene",C=C1C2CC(C1=C)C=C2,420.75,9,"[1, 6]",2,True,CH,alkene
7149,3-prop-2-enylcyclohexene,C=CCC1CCCC=C1,420.91,9,"[1, 6]",2,True,CH,alkene
7150,(5E)-5-ethylidenebicyclo[2.2.1]hept-2-ene,C/C=C/1\CC2CC1C=C2,420.92778,9,"[1, 6]",2,True,CH,alkene
7151,"tricyclo[3.2.2.02,4]nonane",C1CC2CCC1C3C2C3,421.07,9,"[1, 6]",2,True,CH,alkane
7152,"tricyclo[4.2.1.02,5]nonane",C1CC2CC1C3C2CC3,421.07,9,"[1, 6]",2,True,CH,alkane
7153,"tricyclo[6.1.0.02,4]nonane",C1CC2CC2C3CC3C1,421.07,9,"[1, 6]",2,True,CH,alkane
7154,"2,3-dimethylidenebicyclo[2.2.1]heptane",C=C1C2CCC(C2)C1=C,421.59,9,"[1, 6]",2,True,CH,alkene
7155,3-methylideneoct-1-ene,CCCCCC(=C)C=C,421.65,9,"[1, 6]",2,True,CH,alkene
7156,5-methylbicyclo[2.2.2]oct-2-ene,CC1CC2CCC1C=C2,422.03,9,"[1, 6]",2,True,CH,alkene
7157,"3,3-dimethyl-6-methylidenecyclohexa-1,4-diene",CC1(C=CC(=C)C=C1)C,422.79,9,"[1, 6]",2,True,CH,alkene
7158,"1,3-diethylcyclopentane",CCC1CCC(C1)CC,423.15,9,"[1, 6]",2,True,CH,alkane
7159,3-methyl-2-(2-methylpropoxy)but-1-ene,CC(C)COC(=C)C(C)C,423.62,9,"[1, 6, 8]",3,True,CHO,ester
7160,"1,1-diethylcyclopentane",CCC1(CCCC1)CC,423.65,9,"[1, 6]",2,True,CH,alkane
7161,"1,4-dimethylbicyclo[2.2.1]heptane",CC12CCC(C1)(CC2)C,423.75,9,"[1, 6]",2,True,CH,alkane
7162,3-propylcyclohexene,CCCC1CCCC=C1,424.23,9,"[1, 6]",2,True,CH,alkene
7163,4-propylcyclohexene,CCCC1CCC=CC1,424.23,9,"[1, 6]",2,True,CH,alkene
7164,"spiro[bicyclo[2.2.1]hepta-2,5-diene-7,1'-cyclopropane]",C1CC12C3C=CC2C=C3,424.3,9,"[1, 6]",2,True,CH,alkene
7165,"1,2-dimethylcycloheptane",CC1CCCCCC1C,424.67,9,"[1, 6]",2,True,CH,alkane
7166,"1,3-dimethylcycloheptane",CC1CCCCC(C1)C,424.67,9,"[1, 6]",2,True,CH,alkane
7167,1-[(2-methylpropan-2-yl)oxy]pentane,CCCCCOC(C)(C)C,424.71,9,"[1, 6, 8]",3,True,CHO,ester
7168,2-methoxy-2-methylheptane,CCCCCC(C)(C)OC,424.71,9,"[1, 6, 8]",3,True,CHO,ester
7169,trispiro[2.0.24.0.27.03]nonane,C1CC12C3(C24CC4)CC3,425.06,9,"[1, 6]",2,True,CH,alkane
7170,trispiro[2.0.0.25.14.13]nonane,C1CC12CC23CC34CC4,425.06,9,"[1, 6]",2,True,CH,alkane
7171,2-(3-methoxyphenyl)acetonitrile,COC1=CC=CC(=C1)CC#N,425.15,9,"[1, 6, 7, 8]",4,True,CHON,ester
7172,5-methylidenebicyclo[2.2.2]oct-2-ene,C=C1CC2CCC1C=C2,425.86,9,"[1, 6]",2,True,CH,alkene
7173,prop-2-ynylidenecyclohexane,C#CC=C1CCCCC1,426.5,9,"[1, 6]",2,True,CH,alkene
7174,propylidenecyclohexane,CCC=C1CCCCC1,426.65,9,"[1, 6]",2,True,CH,alkene
7175,"N,N-dimethyl-1,1-di(propan-2-yloxy)methanamine",CC(C)OC(N(C)C)OC(C)C,426.65,9,"[1, 6, 7, 8]",4,True,CHON,ester
7176,2-methylidenebicyclo[2.2.2]octane,C=C1CC2CCC1CC2,426.7,9,"[1, 6]",2,True,CH,alkene
7177,3-methylidenebicyclo[3.2.1]octane,C=C1CC2CCC(C2)C1,426.7,9,"[1, 6]",2,True,CH,alkene
7178,"7-ethylcyclohepta-1,3,5-triene",CCC1C=CC=CC=C1,426.82,9,"[1, 6]",2,True,CH,alkene
7179,"N,N-diethylpent-2-yn-1-amine",CCC#CCN(CC)CC,426.96,9,"[1, 6, 7]",3,True,CHN,alkyne
7180,"3,9-dimethyl-3,9-diazabicyclo[4.2.1]nonan-4-one",CN1CC2CCC(N2C)CC1=O,427.65,9,"[1, 6, 7, 8]",4,True,CHON,amide
7181,(E)-4-methyl-2-prop-1-en-2-yloxypent-2-ene,CC(C)/C=C(\C)/OC(=C)C,428.1,9,"[1, 6, 8]",3,True,CHO,ester
7182,2-amino-3-phenylpropan-1-ol,C1=CC=C(C=C1)CC(CO)N,428.15,9,"[1, 6, 7, 8]",4,True,CHON,aromatic
7183,"2,2,4,6-tetramethylpiperidine",CC1CC(NC(C1)(C)C)C,429.15,9,"[1, 6, 7]",3,True,CHN,amine
7184,1-(2-methylpropyl)cyclopentene,CC(C)CC1=CCCC1,429.17,9,"[1, 6]",2,True,CH,alkene
7185,"dispiro[2.0.24.33]nona-1,5-diene",C1CC2(C=C2)C3(C1)C=C3,429.21,9,"[1, 6]",2,True,CH,alkene
7186,"bicyclo[4.2.1]nona-2,4,7-triene",C1C2C=CC=CC1C=C2,429.29,9,"[1, 6]",2,True,CH,alkene
7187,"bicyclo[3.2.2]nona-2,6,8-triene",C1C=CC2C=CC1C=C2,429.29,9,"[1, 6]",2,True,CH,alkene
7188,"(2Z,4Z,6Z)-bicyclo[6.1.0]nona-2,4,6-triene",C1C/2C1/C=C\C=C/C=C2,429.29,9,"[1, 6]",2,True,CH,alkene
7189,"3a,4,7,7a-tetrahydro-1H-indene",C1C=CCC2C1CC=C2,430.13,9,"[1, 6]",2,True,CH,alkene
7190,"bicyclo[4.2.1]nona-2,4-diene",C1CC2CC1C=CC=C2,430.13,9,"[1, 6]",2,True,CH,alkene
7191,"bicyclo[3.2.2]nona-6,8-diene",C1CC2C=CC(C1)C=C2,430.13,9,"[1, 6]",2,True,CH,alkene
7192,"bicyclo[3.2.2]nona-2,6-diene",C1CC2C=CCC1C=C2,430.13,9,"[1, 6]",2,True,CH,alkene
7193,"1,2,4,4-tetramethylcyclopentene",CC1=C(CC(C1)(C)C)C,430.16,9,"[1, 6]",2,True,CH,alkene
7194,"N,N',N'-triethyl-N-methylethane-1,2-diamine",CCN(C)CCN(CC)CC,430.4,9,"[1, 6, 7]",3,True,CHN,amine
7195,4-ethynyl-1-azabicyclo[2.2.2]octane,C#CC12CCN(CC1)CC2,430.74,9,"[1, 6, 7]",3,True,CHN,alkyne