,Name,SMILES,Tb,C Atom,Atom,Count Unique Atom,Pass Screen,Atom2,Func. Group
8637,[(Z)-hex-3-enyl] (E)-but-2-enoate,CC/C=C\CCOC(=O)/C=C/C,494.94,10,"[1, 6, 8]",3,True,CHO,ester
8638,"4,7-dimethyl-4,4a,5,6,7,7a-hexahydro-1H-cyclopenta[c]pyran-3-one",CC1CCC2C1COC(=O)C2C,495.03,10,"[1, 6, 8]",3,True,CHO,ester
8639,"3,6-dimethyl-3a,4,5,6,7,7a-hexahydro-3H-1-benzofuran-2-one",CC1CCC2C(C(=O)OC2C1)C,495.03,10,"[1, 6, 8]",3,True,CHO,ester
8640,"3,6-dimethyl-1-benzofuran",CC1=CC2=C(C=C1)C(=CO2)C,495.15,10,"[1, 6, 8]",3,True,CHO,aromatic
8641,2-aminonaphthalen-1-ol,C1=CC=C2C(=C1)C=CC(=C2O)N,495.15,10,"[1, 6, 7, 8]",4,True,CHON,alcohol
8642,"1-(2,2-dimethoxyethoxy)hexane",CCCCCCOCC(OC)OC,495.22,10,"[1, 6, 8]",3,True,CHO,ester
8643,ethyl oct-2-ynoate,CCCCCC#CC(=O)OCC,495.62,10,"[1, 6, 8]",3,True,CHO,ester
8644,"N-ethyl-2,5-dimethylaniline",CCNC1=C(C=CC(=C1)C)C,495.65,10,"[1, 6, 7]",3,True,CHN,aromatic
8645,"1,4-dimethoxybicyclo[2.2.2]octane",COC12CCC(CC1)(CC2)OC,495.74,10,"[1, 6, 8]",3,True,CHO,ester
8646,2-[6-(oxiran-2-yl)hexyl]oxirane,C1C(O1)CCCCCCC2CO2,495.78,10,"[1, 6, 8]",3,True,CHO,ester
8647,"5,8,8-trimethyl-3-oxabicyclo[3.2.1]octan-2-one",CC1(C2CCC1(COC2=O)C)C,495.91,10,"[1, 6, 8]",3,True,CHO,ester
8648,4-propan-2-ylcyclohexene-1-carbaldehyde,CC(C)C1CCC(=CC1)C=O,496.15,10,"[1, 6, 8]",3,True,CHO,alkene
8649,"2,5-di(propan-2-yl)-1,3-dioxane",CC(C)C1COC(OC1)C(C)C,496.3,10,"[1, 6, 8]",3,True,CHO,ester
8650,"2,6,6-trimethylcyclohex-2-ene-1-carbaldehyde",CC1=CCCC(C1C=O)(C)C,496.32,10,"[1, 6, 8]",3,True,CHO,alkene
8651,"1,2,4-trimethylcyclohex-3-ene-1-carbaldehyde",CC1C=C(CCC1(C)C=O)C,496.32,10,"[1, 6, 8]",3,True,CHO,alkene
8652,2-bicyclo[2.2.1]heptanyl prop-2-enoate,C=CC(=O)OC1CC2CCC1C2,496.38,10,"[1, 6, 8]",3,True,CHO,ester
8653,(1-ethynylcyclohexyl) acetate,CC(=O)OC1(CCCCC1)C#C,496.53,10,"[1, 6, 8]",3,True,CHO,ester
8654,4-methyl-7-propan-2-yloxepan-2-one,CC1CCC(OC(=O)C1)C(C)C,496.79,10,"[1, 6, 8]",3,True,CHO,ester
8655,"2-pentyl-2,3-dihydropyran-6-one",CCCCCC1CC=CC(=O)O1,496.79,10,"[1, 6, 8]",3,True,CHO,ester
8656,5-(4-methylpent-2-en-2-yl)oxolan-2-one,CC(C)C=C(C)C1CCC(=O)O1,496.96,10,"[1, 6, 8]",3,True,CHO,ester
8657,"4-methyl-2-pentyl-1,3-dioxane",CCCCCC1OCCC(O1)C,497.18,10,"[1, 6, 8]",3,True,CHO,ester
8658,"2,5,5-trimethyl-2-propan-2-yl-1,3-dioxane",CC(C)C1(OCC(CO1)(C)C)C,497.22,10,"[1, 6, 8]",3,True,CHO,ester
8659,5-[(Z)-hex-3-enyl]oxolan-2-one,CC/C=C\CCC1CCC(=O)O1,497.52,10,"[1, 6, 8]",3,True,CHO,ester
8660,[(Z)-hex-3-enyl] cyclopropanecarboxylate,CC/C=C\CCOC(=O)C1CC1,497.52,10,"[1, 6, 8]",3,True,CHO,ester
8661,"2-heptyl-1,3-dioxolane",CCCCCCCC1OCCO1,497.58,10,"[1, 6, 8]",3,True,CHO,ester
8662,[(E)-2-ethoxyethenyl]benzene,CCO/C=C/C1=CC=CC=C1,497.65,10,"[1, 6, 8]",3,True,CHO,ester
8663,"2,5,5-trimethyl-2-propyl-1,3-dioxane",CCCC1(OCC(CO1)(C)C)C,497.66,10,"[1, 6, 8]",3,True,CHO,ester
8664,"2-hexyl-2-methyl-1,3-dioxolane",CCCCCCC1(OCCO1)C,497.82,10,"[1, 6, 8]",3,True,CHO,ester
8665,"2-[2-[2-(dimethylamino)ethoxy]ethoxy]-N,N-dimethylethanamine",CN(C)CCOCCOCCN(C)C,498.12,10,"[1, 6, 7, 8]",4,True,CHON,ester
8666,3-pentylpyridine,CCCCCC1=CN=CC=C1,498.15,10,"[1, 6, 7]",3,True,CHN,aromatic
8667,N-butan-2-ylaniline,CCC(C)NC1=CC=CC=C1,498.15,10,"[1, 6, 7]",3,True,CHN,aromatic
8668,2-prop-2-enoxybenzamide,C=CCOC1=CC=CC=C1C(=O)N,498.15,10,"[1, 6, 7, 8]",4,True,CHON,ester
8669,ethyl 2-(diethylamino)butanoate,CCC(C(=O)OCC)N(CC)CC,498.62,10,"[1, 6, 7, 8]",4,True,CHON,ester
8670,ethyl bicyclo[2.2.1]hept-5-ene-2-carboxylate,CCOC(=O)C1CC2CC1C=C2,498.86,10,"[1, 6, 8]",3,True,CHO,ester
8671,2-bicyclo[2.2.1]heptanylmethyl acetate,CC(=O)OCC1CC2CCC1C2,499.7,10,"[1, 6, 8]",3,True,CHO,ester
8672,"(2,3-dimethylphenyl) acetate",CC1=C(C(=CC=C1)OC(=O)C)C,500.15,10,"[1, 6, 8]",3,True,CHO,ester
8673,2-(4-methylcyclohex-3-en-1-yl)propanal,CC1=CCC(CC1)C(C)C=O,500.31,10,"[1, 6, 8]",3,True,CHO,alkene
8674,"2-ethyl-4,6-dimethylphenol",CCC1=CC(=CC(=C1O)C)C,500.65,10,"[1, 6, 8]",3,True,CHO,aromatic
8675,(6-methylcyclohex-3-en-1-yl)methyl acetate,CC1CC=CCC1COC(=O)C,500.66,10,"[1, 6, 8]",3,True,CHO,ester
8676,"4,6,6-trimethylbicyclo[3.1.1]hept-3-en-2-one",CC1=CC(=O)C2CC1C2(C)C,500.7,10,"[1, 6, 8]",3,True,CHO,alkene
8677,"1,2,3,4,4a,5,6,7,8,8a-decahydronaphthalen-1-amine",C1CCC2C(C1)CCCC2N,500.75,10,"[1, 6, 7]",3,True,CHN,amine
8678,(4-methylphenyl)methyl acetate,CC1=CC=C(C=C1)COC(=O)C,501.65,10,"[1, 6, 8]",3,True,CHO,ester
8679,3-methyl-2-propan-2-ylphenol,CC1=C(C(=CC=C1)O)C(C)C,501.65,10,"[1, 6, 8]",3,True,CHO,aromatic
8680,"4,8,8-trimethyloxocan-2-one",CC1CCCC(OC(=O)C1)(C)C,501.74,10,"[1, 6, 8]",3,True,CHO,ester
8681,6-[(Z)-pent-2-enyl]oxan-2-one,CC/C=C\CC1CCCC(=O)O1,501.79,10,"[1, 6, 8]",3,True,CHO,ester
8682,1-cyclohexylbutan-1-one,CCCC(=O)C1CCCCC1,501.82,10,"[1, 6, 8]",3,True,CHO,ketone
8683,"4-hexyl-1,3-dioxane",CCCCCCC1CCOCO1,501.85,10,"[1, 6, 8]",3,True,CHO,ester
8684,7-butyloxepan-2-one,CCCCC1CCCCC(=O)O1,501.9,10,"[1, 6, 8]",3,True,CHO,ester
8685,ditert-butyl oxalate,CC(C)(C)OC(=O)C(=O)OC(C)(C)C,502.15,10,"[1, 6, 8]",3,True,CHO,ester
8686,"2,4-diethylphenol",CCC1=CC(=C(C=C1)O)CC,502.15,10,"[1, 6, 8]",3,True,CHO,aromatic
8687,"4-ethyl-1,2-dimethoxybenzene",CCC1=CC(=C(C=C1)OC)OC,502.15,10,"[1, 6, 8]",3,True,CHO,ester
8688,"2-methylbutan-2-yl 2,2-dimethylpropaneperoxoate",CCC(C)(C)OOC(=O)C(C)(C)C,502.58,10,"[1, 6, 8]",3,True,CHO,ester
8689,"tert-butyl 2,2-dimethylbutaneperoxoate",CCC(C)(C)C(=O)OOC(C)(C)C,502.58,10,"[1, 6, 8]",3,True,CHO,ester
8690,4-pentylpyridine,CCCCCC1=CC=NC=C1,502.65,10,"[1, 6, 7]",3,True,CHN,aromatic
8691,ethyl N-benzylcarbamate,CCOC(=O)NCC1=CC=CC=C1,503.15,10,"[1, 6, 7, 8]",4,True,CHON,ester
8692,1-(3-butoxypropoxy)propan-1-ol,CCCCOCCCOC(CC)O,503.15,10,"[1, 6, 8]",3,True,CHO,ester
8693,"3,4-diethylhexane-3,4-diol",CCC(CC)(C(CC)(CC)O)O,503.15,10,"[1, 6, 8]",3,True,CHO,alcohol
8694,7-ethyl-1H-indole,CCC1=CC=CC2=C1NC=C2,503.15,10,"[1, 6, 7]",3,True,CHN,aromatic
8695,"N-[3-(dimethylamino)propyl]-N',N'-dimethylpropane-1,3-diamine",CN(C)CCCNCCCN(C)C,503.45,10,"[1, 6, 7]",3,True,CHN,amine
8696,"(2Z)-2-(3,3-dimethylcyclohexylidene)acetaldehyde",CC1(CCC/C(=C/C=O)/C1)C,503.49,10,"[1, 6, 8]",3,True,CHO,alkene
8697,"1-methyl-4-propan-2-yl-2,3-dioxabicyclo[2.2.2]oct-5-ene",CC(C)C12CCC(C=C1)(OO2)C,503.52,10,"[1, 6, 8]",3,True,CHO,alkene
8698,(E)-4-cyclohexylbut-3-en-2-one,CC(=O)/C=C/C1CCCCC1,504.15,10,"[1, 6, 8]",3,True,CHO,alkene
8699,"1,3-ditert-butylaziridin-2-one",CC(C)(C)C1C(=O)N1C(C)(C)C,504.67,10,"[1, 6, 7, 8]",4,True,CHON,amide
8700,"4,7,7-trimethylbicyclo[4.1.0]heptan-3-one",CC1CC2C(C2(C)C)CC1=O,504.87,10,"[1, 6, 8]",3,True,CHO,ketone
8701,N-(2-methylpropyl)aniline,CC(C)CNC1=CC=CC=C1,505.15,10,"[1, 6, 7]",3,True,CHN,aromatic
8702,"11-oxabicyclo[4.4.1]undeca-1,3,5,7,9-pentaene",C1=CC=C2C=CC=CC(=C1)O2,505.28,10,"[1, 6, 8]",3,True,CHO,ester
8703,tert-butyl 2-ethylbutaneperoxoate,CCC(CC)C(=O)OOC(C)(C)C,505.37,10,"[1, 6, 8]",3,True,CHO,ester
8704,2-butoxyphenol,CCCCOC1=CC=CC=C1O,505.65,10,"[1, 6, 8]",3,True,CHO,ester
8705,"2,6,6-trimethylcyclohexene-1-carbaldehyde",CC1=C(C(CCC1)(C)C)C=O,505.97,10,"[1, 6, 8]",3,True,CHO,alkene
8706,"1,3,4-trimethylcyclohex-3-ene-1-carbaldehyde",CC1=C(CC(CC1)(C)C=O)C,505.97,10,"[1, 6, 8]",3,True,CHO,alkene
8707,2-cyclohexylethyl acetate,CC(=O)OCCC1CCCCC1,506.17,10,"[1, 6, 8]",3,True,CHO,ester
8708,"1-(1,4-dimethylcyclohex-3-en-1-yl)ethanone",CC1=CCC(CC1)(C)C(=O)C,506.2,10,"[1, 6, 8]",3,True,CHO,alkene
8709,(3-ethylphenyl) acetate,CCC1=CC(=CC=C1)OC(=O)C,507.15,10,"[1, 6, 8]",3,True,CHO,ester
8710,2-methoxy-4-propylcyclohexan-1-ol,CCCC1CCC(C(C1)OC)O,507.15,10,"[1, 6, 8]",3,True,CHO,ester
8711,"6-methyl-3,4-dihydro-2H-chromene",CC1=CC2=C(C=C1)OCCC2,507.15,10,"[1, 6, 8]",3,True,CHO,ester
8712,"4-prop-2-enylhepta-1,6-dien-4-ol",C=CCC(CC=C)(CC=C)O,507.39,10,"[1, 6, 8]",3,True,CHO,alkene
8713,3-methylnon-1-yn-3-ol,CCCCCCC(C)(C#C)O,507.47,10,"[1, 6, 8]",3,True,CHO,alkyne
8714,"(3,4-dimethylphenyl) acetate",CC1=C(C=C(C=C1)OC(=O)C)C,508.15,10,"[1, 6, 8]",3,True,CHO,ester
8715,"N,N-bis(oxiran-2-ylmethyl)butan-1-amine",CCCCN(CC1CO1)CC2CO2,508.22,10,"[1, 6, 7, 8]",4,True,CHON,ester
8716,6-methyl-3-propan-2-ylcyclohex-2-en-1-one,CC1CCC(=CC1=O)C(C)C,508.65,10,"[1, 6, 8]",3,True,CHO,alkene
8717,"6,6-dimethyl-2-methylidenebicyclo[3.1.1]heptan-3-one",CC1(C2CC1C(=C)C(=O)C2)C,508.7,10,"[1, 6, 8]",3,True,CHO,alkene
8718,8-methyl-1-oxaspiro[4.5]decan-2-one,CC1CCC2(CC1)CCC(=O)O2,508.88,10,"[1, 6, 8]",3,True,CHO,ester
8719,"(2E)-3,7-dimethylocta-2,6-dien-1-amine",CC(=CCC/C(=C/CN)/C)C,509.01,10,"[1, 6, 7]",3,True,CHN,alkene
8720,2-butoxyethyl butanoate,CCCCOCCOC(=O)CCC,509.04,10,"[1, 6, 8]",3,True,CHO,ester
8721,(4Z)-cyclodec-4-en-1-one,C1CC/C=C\CCC(=O)CC1,509.15,10,"[1, 6, 8]",3,True,CHO,alkene
8722,"2-methyl-2,3-dihydroinden-1-one",CC1CC2=CC=CC=C2C1=O,509.15,10,"[1, 6, 8]",3,True,CHO,aromatic
8723,4-propylbenzaldehyde,CCCC1=CC=C(C=C1)C=O,509.65,10,"[1, 6, 8]",3,True,CHO,aromatic
8724,"1,7,7-trimethylbicyclo[2.2.1]heptan-2-amine",CC1(C2CCC1(C(C2)N)C)C,509.82,10,"[1, 6, 7]",3,True,CHN,amine
8725,4-ethyloct-1-yn-3-ol,CCCCC(CC)C(C#C)O,509.82,10,"[1, 6, 8]",3,True,CHO,alkyne
8726,"2-(1,3-dimethylimidazolidin-2-ylidene)-1,3-dimethylimidazolidine",CN1CCN(C1=C2N(CCN2C)C)C,510.1,10,"[1, 6, 7]",3,True,CHN,alkene
8727,"(2,5-dimethylphenyl) acetate",CC1=CC(=C(C=C1)C)OC(=O)C,510.15,10,"[1, 6, 8]",3,True,CHO,ester
8728,"(3,5-dimethylphenyl) acetate",CC1=CC(=CC(=C1)OC(=O)C)C,510.15,10,"[1, 6, 8]",3,True,CHO,ester
8729,ethyl cycloheptanecarboxylate,CCOC(=O)C1CCCCCC1,510.44,10,"[1, 6, 8]",3,True,CHO,ester
8730,butyl 3-(azetidin-1-yl)propanoate,CCCCOC(=O)CCN1CCC1,510.47,10,"[1, 6, 7, 8]",4,True,CHON,ester
8731,"2,4,6-trimethylhepta-1,6-dien-4-ol",CC(=C)CC(C)(CC(=C)C)O,510.47,10,"[1, 6, 8]",3,True,CHO,alkene
8732,2-methyl-6-methylideneoct-7-en-2-ol,CC(C)(CCCC(=C)C=C)O,510.59,10,"[1, 6, 8]",3,True,CHO,alkene
8733,"3,7-dimethylocta-1,7-dien-3-ol",CC(=C)CCCC(C)(C=C)O,510.59,10,"[1, 6, 8]",3,True,CHO,alkene
8734,2-methyl-4-propan-2-ylcyclohexan-1-one,CC1CC(CCC1=O)C(C)C,510.66,10,"[1, 6, 8]",3,True,CHO,ketone
8735,dec-9-yn-1-ol,C#CCCCCCCCCO,510.7,10,"[1, 6, 8]",3,True,CHO,alkyne
8736,5-methyl-2-propan-2-ylcyclohexan-1-amine,CC1CCC(C(C1)N)C(C)C,510.7,10,"[1, 6, 7]",3,True,CHN,amine
8737,"4-propylhepta-1,6-dien-4-ol",CCCC(CC=C)(CC=C)O,510.71,10,"[1, 6, 8]",3,True,CHO,alkene
8738,3-methyl-4-propan-2-ylphenol,CC1=C(C=CC(=C1)O)C(C)C,511.15,10,"[1, 6, 8]",3,True,CHO,aromatic
8739,"6,7,8,9-tetrahydro-5H-cyclohepta[b]pyridine",C1CCC2=C(CC1)N=CC=C2,511.15,10,"[1, 6, 7]",3,True,CHN,aromatic
8740,4-(2-methylpropyl)aniline,CC(C)CC1=CC=C(C=C1)N,511.15,10,"[1, 6, 7]",3,True,CHN,aromatic
8741,"1,2,2,6,6-pentamethylpiperidin-4-ol",CC1(CC(CC(N1C)(C)C)O)C,511.15,10,"[1, 6, 7, 8]",4,True,CHON,alcohol
8742,2-methyl-6-propan-2-ylaniline,CC1=C(C(=CC=C1)C(C)C)N,511.15,10,"[1, 6, 7]",3,True,CHN,aromatic
8743,"3,7-dimethyloct-6-en-1-yn-3-ol",CC(=CCCC(C)(C#C)O)C,511.51,10,"[1, 6, 8]",3,True,CHO,alkene
8744,(8-methyl-8-azabicyclo[3.2.1]octan-3-yl) acetate,CC(=O)OC1CC2CCC(C1)N2C,512.14,10,"[1, 6, 7, 8]",4,True,CHON,ester
8745,3-tert-butylcyclohexan-1-one,CC(C)(C)C1CCCC(=O)C1,512.54,10,"[1, 6, 8]",3,True,CHO,ketone
8746,2-tert-butylcyclohexan-1-one,CC(C)(C)C1CCCCC1=O,512.54,10,"[1, 6, 8]",3,True,CHO,ketone
8747,4-tert-butylcyclohexan-1-amine,CC(C)(C)C1CCC(CC1)N,512.58,10,"[1, 6, 7]",3,True,CHN,amine
8748,"methyl 3,5-dimethylbenzoate",CC1=CC(=CC(=C1)C(=O)OC)C,512.65,10,"[1, 6, 8]",3,True,CHO,ester
8749,"2,6-dimethylocta-1,7-dien-3-ol",CC(CCC(C(=C)C)O)C=C,512.94,10,"[1, 6, 8]",3,True,CHO,alkene
8750,"tricyclo[5.2.1.02,6]dec-3-en-8-ol",C1C=CC2C1C3CC2CC3O,513.15,10,"[1, 6, 8]",3,True,CHO,alkene
8751,"2,3-dimethyl-2,3-dihydro-1H-indole",CC1C(NC2=CC=CC=C12)C,513.15,10,"[1, 6, 7]",3,True,CHN,aromatic
8752,"8,8-dimethyl-6,10-dioxaspiro[4.5]decane",CC1(COC2(CCCC2)OC1)C,513.34,10,"[1, 6, 8]",3,True,CHO,ester
8753,"N',N'-dibutylethane-1,2-diamine",CCCCN(CCCC)CCN,513.37,10,"[1, 6, 7]",3,True,CHN,amine
8754,"3,5,5-trimethyl-2-methylidenehexan-1-ol",CC(CC(C)(C)C)C(=C)CO,513.47,10,"[1, 6, 8]",3,True,CHO,alkene
8755,"3,7-dimethyloct-1-en-3-ol",CC(C)CCCC(C)(C=C)O,513.59,10,"[1, 6, 8]",3,True,CHO,alkene
8756,"2,6-dimethyloct-7-en-2-ol",CC(CCCC(C)(C)O)C=C,513.59,10,"[1, 6, 8]",3,True,CHO,alkene
8757,"3,3-dimethyl-2-methylidenebicyclo[2.2.1]heptan-1-amine",CC1(C2CCC(C2)(C1=C)N)C,513.65,10,"[1, 6, 7]",3,True,CHN,alkene
8758,"2,3,5,5-tetramethylhexan-3-ol",CC(C)C(C)(CC(C)(C)C)O,513.68,10,"[1, 6, 8]",3,True,CHO,alcohol
8759,"2,2,3,5-tetramethylhexan-3-ol",CC(C)CC(C)(C(C)(C)C)O,513.68,10,"[1, 6, 8]",3,True,CHO,alcohol
8760,"3,3,5,5-tetramethylhexan-2-ol",CC(C(C)(C)CC(C)(C)C)O,513.68,10,"[1, 6, 8]",3,True,CHO,alcohol
8761,"2,3,3-trimethyl-2-propan-2-ylbutan-1-ol",CC(C)C(C)(CO)C(C)(C)C,513.68,10,"[1, 6, 8]",3,True,CHO,alcohol
8762,3-methylnon-1-en-3-ol,CCCCCCC(C)(C=C)O,514.03,10,"[1, 6, 8]",3,True,CHO,alkene
8763,"3-ethyl-5,5-dimethylhexan-3-ol",CCC(CC)(CC(C)(C)C)O,514.12,10,"[1, 6, 8]",3,True,CHO,alcohol
8764,decyl nitrite,CCCCCCCCCCON=O,514.22,10,"[1, 6, 7, 8]",4,True,CHON,ester
8765,"tricyclo[5.2.1.02,6]deca-4,8-dien-3-one",C1C2C=CC1C3C2C=CC3=O,514.36,10,"[1, 6, 8]",3,True,CHO,alkene
8766,"tricyclo[3.3.2.02,8]deca-6,9-dien-3-one",C1C2C=CC3C(C3C1=O)C=C2,514.36,10,"[1, 6, 8]",3,True,CHO,alkene
8767,2-methylidene-5-propan-2-ylcyclohexan-1-one,CC(C)C1CCC(=C)C(=O)C1,514.49,10,"[1, 6, 8]",3,True,CHO,alkene
8768,cyclooctyl acetate,CC(=O)OC1CCCCCCC1,514.71,10,"[1, 6, 8]",3,True,CHO,ester
8769,"(5E)-3,7-dimethylocta-1,5,7-trien-3-ol",CC(=C)/C=C/CC(C)(C=C)O,514.75,10,"[1, 6, 8]",3,True,CHO,alkene
8770,3-[2-[2-(2-methoxyethoxy)ethoxy]ethoxy]prop-1-ene,COCCOCCOCCOCC=C,514.76,10,"[1, 6, 8]",3,True,CHO,ester
8771,ethyl 2-(cyclohexen-1-yl)acetate,CCOC(=O)CC1=CCCCC1,514.98,10,"[1, 6, 8]",3,True,CHO,ester
8772,"1,3,8,10-tetrazatricyclo[8.4.0.03,8]tetradeca-5,12-diene",C1C=CCN2N1CN3CC=CCN3C2,514.98,10,"[1, 6, 7]",3,True,CHN,alkene
8773,"5-[(Z)-prop-1-enyl]-1,3-benzodioxole",C/C=C\C1=CC2=C(C=C1)OCO2,515.05,10,"[1, 6, 8]",3,True,CHO,ester
8774,4-methyl-6-(oxiran-2-yl)heptan-3-one,CCC(=O)C(C)CC(C)C1CO1,515.08,10,"[1, 6, 8]",3,True,CHO,ester
8775,"3-methyl-2-phenyl-1,3-oxazolidine",CN1CCOC1C2=CC=CC=C2,515.15,10,"[1, 6, 7, 8]",4,True,CHON,ester
8776,"tricyclo[5.2.1.02,6]dec-4-en-3-one",C1CC2CC1C3C2C(=O)C=C3,515.2,10,"[1, 6, 8]",3,True,CHO,alkene
8777,2-butan-2-ylcyclohexan-1-one,CCC(C)C1CCCCC1=O,515.33,10,"[1, 6, 8]",3,True,CHO,ketone
8778,2-[(E)-pent-2-enyl]cyclopentan-1-one,CC/C=C/CC1CCCC1=O,515.66,10,"[1, 6, 8]",3,True,CHO,alkene
8779,ethyl 2-azabicyclo[2.2.2]oct-5-ene-2-carboxylate,CCOC(=O)N1CC2CCC1C=C2,515.97,10,"[1, 6, 7, 8]",4,True,CHON,ester
8780,"2,4,4,5-tetramethylhexan-3-ol",CC(C)C(C(C)(C)C(C)C)O,516.03,10,"[1, 6, 8]",3,True,CHO,alcohol
8781,"3,4-dimethyl-3-propan-2-ylpentan-2-ol",CC(C)C(C)(C(C)C)C(C)O,516.03,10,"[1, 6, 8]",3,True,CHO,alcohol
8782,adamantan-2-one,C1C2CC3CC1CC(C2)C3=O,516.04,10,"[1, 6, 8]",3,True,CHO,ketone
8783,"tricyclo[5.2.1.02,6]decan-8-one",C1CC2C(C1)C3CC2CC3=O,516.04,10,"[1, 6, 8]",3,True,CHO,ketone
8784,adamantan-2-amine,C1C2CC3CC1CC(C2)C3N,516.08,10,"[1, 6, 7]",3,True,CHN,amine
8785,2-phenoxyethyl acetate,CC(=O)OCCOC1=CC=CC=C1,516.15,10,"[1, 6, 8]",3,True,CHO,ester
8786,3-methyl-6-prop-1-en-2-ylcyclohex-2-en-1-one,CC1=CC(=O)C(CC1)C(=C)C,516.47,10,"[1, 6, 8]",3,True,CHO,alkene
8787,"4,6,6-trimethylheptan-2-ol",CC(CC(C)O)CC(C)(C)C,516.47,10,"[1, 6, 8]",3,True,CHO,alcohol
8788,"2,3,6-trimethylheptan-3-ol",CC(C)CCC(C)(C(C)C)O,516.47,10,"[1, 6, 8]",3,True,CHO,alcohol
8789,"2,2,5-trimethylheptan-4-ol",CCC(C)C(CC(C)(C)C)O,516.47,10,"[1, 6, 8]",3,True,CHO,alcohol
8790,"2,2,6-trimethylheptan-3-ol",CC(C)CCC(C(C)(C)C)O,516.47,10,"[1, 6, 8]",3,True,CHO,alcohol
8791,"2,2,6-trimethylheptan-4-ol",CC(C)CC(CC(C)(C)C)O,516.47,10,"[1, 6, 8]",3,True,CHO,alcohol
8792,"2,4,5-trimethylheptan-4-ol",CCC(C)C(C)(CC(C)C)O,516.47,10,"[1, 6, 8]",3,True,CHO,alcohol
8793,"2,4,6-trimethylheptan-2-ol",CC(C)CC(C)CC(C)(C)O,516.47,10,"[1, 6, 8]",3,True,CHO,alcohol
8794,"4-ethyl-2,4-dimethylhexan-3-ol",CCC(C)(CC)C(C(C)C)O,516.47,10,"[1, 6, 8]",3,True,CHO,alcohol
8795,"4,4-dimethyl-3-propan-2-ylpentan-1-ol",CC(C)C(CCO)C(C)(C)C,516.47,10,"[1, 6, 8]",3,True,CHO,alcohol
8796,"5,6-dimethylidenebicyclo[2.2.2]octan-2-one",C=C1C2CCC(C1=C)C(=O)C2,516.56,10,"[1, 6, 8]",3,True,CHO,alkene
8797,ethyl N-methyl-N-phenylcarbamate,CCOC(=O)N(C)C1=CC=CC=C1,516.65,10,"[1, 6, 7, 8]",4,True,CHON,ester
8798,"3,7-dimethyloct-7-en-1-ol",CC(CCCC(=C)C)CCO,516.7,10,"[1, 6, 8]",3,True,CHO,alkene
8799,ethyl 1-azabicyclo[2.2.2]octane-2-carboxylate,CCOC(=O)C1CC2CCN1CC2,516.81,10,"[1, 6, 7, 8]",4,True,CHON,ester
8800,"2,6-dimethyloctan-2-ol",CCC(C)CCCC(C)(C)O,516.91,10,"[1, 6, 8]",3,True,CHO,alcohol
8801,"2,4-dimethyloctan-2-ol",CCCCC(C)CC(C)(C)O,516.91,10,"[1, 6, 8]",3,True,CHO,alcohol
8802,"3,4-diethylhexan-3-ol",CCC(CC)C(CC)(CC)O,516.91,10,"[1, 6, 8]",3,True,CHO,alcohol
8803,"2,2-dimethyloctan-3-ol",CCCCCC(C(C)(C)C)O,516.91,10,"[1, 6, 8]",3,True,CHO,alcohol
8804,"2,4-dimethyloctan-4-ol",CCCCC(C)(CC(C)C)O,516.91,10,"[1, 6, 8]",3,True,CHO,alcohol
8805,"2,7-dimethyloctan-2-ol",CC(C)CCCCC(C)(C)O,516.91,10,"[1, 6, 8]",3,True,CHO,alcohol
8806,"3,5-dimethyloctan-3-ol",CCCC(C)CC(C)(CC)O,516.91,10,"[1, 6, 8]",3,True,CHO,alcohol
8807,"4,6-dimethyloctan-4-ol",CCCC(C)(CC(C)CC)O,516.91,10,"[1, 6, 8]",3,True,CHO,alcohol
8808,"3,4-dimethyloctan-4-ol",CCCCC(C)(C(C)CC)O,516.91,10,"[1, 6, 8]",3,True,CHO,alcohol
8809,"1,1-bis(2-methoxyethoxy)-2-methylpropane",CC(C)C(OCCOC)OCCOC,517.2,10,"[1, 6, 8]",3,True,CHO,ester
8810,1-cyclohexyl-2-methylpropan-2-amine,CC(C)(CC1CCCCC1)N,517.25,10,"[1, 6, 7]",3,True,CHN,amine
8811,2-methylnonan-2-ol,CCCCCCCC(C)(C)O,517.35,10,"[1, 6, 8]",3,True,CHO,alcohol
8812,3-methylnonan-3-ol,CCCCCCC(C)(CC)O,517.35,10,"[1, 6, 8]",3,True,CHO,alcohol
8813,4-methylnonan-4-ol,CCCCCC(C)(CCC)O,517.35,10,"[1, 6, 8]",3,True,CHO,alcohol
8814,4-ethyloctan-4-ol,CCCCC(CC)(CCC)O,517.35,10,"[1, 6, 8]",3,True,CHO,alcohol
8815,"2-methyl-6-methylideneocta-2,7-dien-4-ol",CC(=CC(CC(=C)C=C)O)C,517.42,10,"[1, 6, 8]",3,True,CHO,alkene
8816,ethyl 2-cyclohexylideneacetate,CCOC(=O)C=C1CCCCC1,517.48,10,"[1, 6, 8]",3,True,CHO,ester
8817,"3-ethenyl-2,5-dimethylhex-4-en-2-ol",CC(=CC(C=C)C(C)(C)O)C,517.63,10,"[1, 6, 8]",3,True,CHO,alkene
8818,"3,3,6-trimethylhepta-1,5-dien-4-ol",CC(=CC(C(C)(C)C=C)O)C,517.63,10,"[1, 6, 8]",3,True,CHO,alkene
8819,"1,1-bis(2-methoxyethoxy)butane",CCCC(OCCOC)OCCOC,517.64,10,"[1, 6, 8]",3,True,CHO,ester
8820,"(5E)-2,6-dimethylocta-5,7-dien-2-ol",C/C(=C\CCC(C)(C)O)/C=C,518.07,10,"[1, 6, 8]",3,True,CHO,alkene
8821,1-ethoxy-2-[2-(2-ethoxyethoxy)ethoxy]ethane,CCOCCOCCOCCOCC,518.08,10,"[1, 6, 8]",3,True,CHO,ester
8822,ethyl N-(4-methylphenyl)carbamate,CCOC(=O)NC1=CC=C(C=C1)C,518.15,10,"[1, 6, 7, 8]",4,True,CHON,ester
8823,2-methyl-3-phenylpropan-1-ol,CC(CC1=CC=CC=C1)CO,518.15,10,"[1, 6, 8]",3,True,CHO,aromatic
8824,ethyl (E)-3-pyrrolidin-1-ylbut-2-enoate,CCOC(=O)/C=C(\C)/N1CCCC1,518.78,10,"[1, 6, 7, 8]",4,True,CHON,ester
8825,"3,7-dimethyloctan-2-ol",CC(C)CCCC(C)C(C)O,519.26,10,"[1, 6, 8]",3,True,CHO,alcohol
8826,"3,6-dimethyloctan-4-ol",CCC(C)CC(C(C)CC)O,519.26,10,"[1, 6, 8]",3,True,CHO,alcohol
8827,"2,5-dimethyloctan-4-ol",CCCC(C)C(CC(C)C)O,519.26,10,"[1, 6, 8]",3,True,CHO,alcohol
8828,5-ethyl-4-methylheptan-3-ol,CCC(CC)C(C)C(CC)O,519.26,10,"[1, 6, 8]",3,True,CHO,alcohol
8829,5-methyl-2-propan-2-ylcyclohex-2-en-1-one,CC1CC=C(C(=O)C1)C(C)C,519.47,10,"[1, 6, 8]",3,True,CHO,alkene
8830,8-methylnonan-2-ol,CC(C)CCCCCC(C)O,519.7,10,"[1, 6, 8]",3,True,CHO,alcohol
8831,"2,7-dimethyloctan-1-ol",CC(C)CCCCC(C)CO,519.7,10,"[1, 6, 8]",3,True,CHO,alcohol
8832,4-ethyloctan-3-ol,CCCCC(CC)C(CC)O,519.7,10,"[1, 6, 8]",3,True,CHO,alcohol
8833,6-ethyloctan-3-ol,CCC(CC)CCC(CC)O,519.7,10,"[1, 6, 8]",3,True,CHO,alcohol
8834,7-methylnonan-4-ol,CCCC(CCC(C)CC)O,519.7,10,"[1, 6, 8]",3,True,CHO,alcohol
8835,2-methylnonan-5-ol,CCCCC(CCC(C)C)O,519.7,10,"[1, 6, 8]",3,True,CHO,alcohol
8836,3-methylnonan-2-ol,CCCCCCC(C)C(C)O,519.7,10,"[1, 6, 8]",3,True,CHO,alcohol
8837,"2,6-dimethyloctan-1-ol",CCC(C)CCCC(C)CO,519.7,10,"[1, 6, 8]",3,True,CHO,alcohol