,Name,SMILES,Tb,C Atom,Atom,Count Unique Atom,Pass Screen,Atom2,Func. Group
2135,N-Methylmorpholine,CN1CCOCC1,389.15,5,"[1, 6, 7, 8]",4,True,CHON,ester
2136,2-Pyridineethanol,C1=CC=NC(=C1)CCO,389.15,7,"[1, 6, 7, 8]",4,True,CHON,aromatic
2137,"1,2-Diaminoethane",C(CN)N,390.15,2,"[1, 6, 7]",3,True,CHN,amine
2138,"1,2-Ethanediamine, N,n,n'-Trimethyl-",CNCCN(C)C,390.15,5,"[1, 6, 7]",3,True,CHN,amine
2139,3-Methoxypropylamine,COCCCN,390.65,4,"[1, 6, 7, 8]",4,True,CHON,ester
2140,"2,5-Dimethyl-Oxazole",CC1=CN=C(O1)C,390.65,5,"[1, 6, 7, 8]",4,True,CHON,aromatic
2141,Isolan,CC1=NN(C(=C1)OC(=O)N(C)C)C(C)C,390.9,10,"[1, 6, 7, 8]",4,True,CHON,ester
2142,"Ethanol, 2-(ethyl(3-Methylphenyl)amino)-",CCN(CCO)C1=CC=CC(=C1)C,391.15,11,"[1, 6, 7, 8]",4,True,CHON,aromatic
2143,3-Methoxy-4-Hydroxyphenylethylamine,COC1=CC=CC(=C1)CCN,391.65,9,"[1, 6, 7, 8]",4,True,CHON,ester
2144,Pimeclone,C1CCN(CC1)CC2CCCCC2=O,392.15,12,"[1, 6, 7, 8]",4,True,CHON,ketone
2145,"Acetonitrile, Methoxy-",COCC#N,392.15,3,"[1, 6, 7, 8]",4,True,CHON,ester
2146,3-Butenenitrile,C=CCC#N,392.15,4,"[1, 6, 7]",3,True,CHN,alkene
2147,1-Phenylpyrrolidine,C1CCN(C1)C2=CC=CC=C2,392.65,10,"[1, 6, 7]",3,True,CHN,aromatic
2148,"1,2-Diaminopropane",CC(CN)N,392.65,3,"[1, 6, 7]",3,True,CHN,amine
2149,"1,3,5-Triazine, 2,4,6-Tris(2-Propenyloxy)-",C=CCOC1=NC(=NC(=N1)OCC=C)OCC=C,393.15,12,"[1, 6, 7, 8]",4,True,CHON,ester
2150,2-Methylpiperidine,CC1CCCCN1,393.15,6,"[1, 6, 7]",3,True,CHN,amine
2151,"Cyclohexanol, 1-Ethynyl-, Carbamate",C#CC1(CCCCC1)OC(=O)N,393.15,9,"[1, 6, 7, 8]",4,True,CHON,ester
2152,Diacetone Acrylamide,CC(=O)CC(C)(C)NC(=O)C=C,393.15,9,"[1, 6, 7, 8]",4,True,CHON,amide
2153,"Formamide, N,n-Dibutyl-",CCCCN(CCCC)C=O,393.15,9,"[1, 6, 7, 8]",4,True,CHON,amide
2154,5-Methylquinoxaline,CC1=C2C(=CC=C1)N=CC=N2,393.15,9,"[1, 6, 7]",3,True,CHN,aromatic
2155,"Piperazine, 1-(2-Pyridinyl)-",C1CN(CCN1)C2=CC=CC=N2,394.15,9,"[1, 6, 7]",3,True,CHN,aromatic
2156,Crotononitrile,C/C=C/C#N,393.65,4,"[1, 6, 7]",3,True,CHN,alkene
2157,Betazole,C1=C(NN=C1)CCN,393.65,5,"[1, 6, 7]",3,True,CHN,aromatic
2158,"Cyclopentanamine, 1-Methyl-",CC1(CCCC1)N,394.15,6,"[1, 6, 7]",3,True,CHN,amine
2159,4-Vinylpyridine,C=CC1=CC=NC=C1,394.15,7,"[1, 6, 7]",3,True,CHN,alkene
2160,"Benzene, 1,3-Diisocyanato-",C1=CC(=CC(=C1)N=C=O)N=C=O,394.15,8,"[1, 6, 7, 8]",4,True,CHON,aromatic
2161,Methsuximide,CC1(CC(=O)N(C1=O)C)C2=CC=CC=C2,394.65,12,"[1, 6, 7, 8]",4,True,CHON,amide
2162,"Isoxazole, 5-Methyl-",CC1=CC=NO1,395.15,4,"[1, 6, 7, 8]",4,True,CHON,aromatic
2163,"Nicotinic Acid, Butyl Ester",CCCCOC(=O)C1=CN=CC=C1,395.65,10,"[1, 6, 7, 8]",4,True,CHON,ester
2164,4-Phenylbutylamine,C1=CC=C(C=C1)CCCCN,396.65,10,"[1, 6, 7]",3,True,CHN,aromatic
2165,Pyrimidine,C1=CN=CN=C1,396.95,4,"[1, 6, 7]",3,True,CHN,aromatic
2166,"2-Propanol, 1-(dimethylamino)-",CC(CN(C)C)O,397.65,5,"[1, 6, 7, 8]",4,True,CHON,alcohol
2167,N-Nitrosodiethanolamine,C(CO)N(CCO)N=O,398.15,4,"[1, 6, 7, 8]",4,True,CHON,alcohol
2168,N-(butoxymethyl)acrylamide,CCCCOCNC(=O)C=C,399.65,8,"[1, 6, 7, 8]",4,True,CHON,ester
2169,"Pentanenitrile, 4,4-Dimethyl-3-Oxo-",CC(C)(C)C(=O)CC#N,398.65,7,"[1, 6, 7, 8]",4,True,CHON,ketone
2170,"3,4-Dimephenyl N-Methylcarbamate",CC1=C(C=C(C=C1)OC(=O)NC)C,399.15,10,"[1, 6, 7, 8]",4,True,CHON,ester
2171,Metamfepramone,CC(C(=O)C1=CC=CC=C1)N(C)C,399.15,11,"[1, 6, 7, 8]",4,True,CHON,ketone
2172,Fenproporex,CC(CC1=CC=CC=C1)NCCC#N,399.65,12,"[1, 6, 7]",3,True,CHN,aromatic
2173,"2-Propanamine, N-Ethyl-n-(1-Methylethyl)-",CCN(C(C)C)C(C)C,399.65,8,"[1, 6, 7]",3,True,CHN,amine
2174,1-Methylpyrazole,CN1C=CC=N1,400.15,4,"[1, 6, 7]",3,True,CHN,aromatic
2175,"Piperidine, 2,6-Dimethyl-",CC1CCCC(N1)C,400.15,7,"[1, 6, 7]",3,True,CHN,amine
2176,"Formamidine, N,n-Dimethyl-N'-Phenyl-",CN(C)C=NC1=CC=CC=C1,400.15,9,"[1, 6, 7]",3,True,CHN,aromatic
2177,Morpholine,C1COCCN1,401.15,4,"[1, 6, 7, 8]",4,True,CHON,ester
2178,Isoprocarb,CC(C)C1=CC=CC=C1OC(=O)NC,401.65,11,"[1, 6, 7, 8]",4,True,CHON,ester
2179,Mptp,CN1CCC(=CC1)C2=CC=CC=C2,403.15,12,"[1, 6, 7]",3,True,CHN,alkene
2180,"1,2-Ethanediamine, N-Ethyl-",CCNCCN,402.15,4,"[1, 6, 7]",3,True,CHN,amine
2181,"Methanamine, 1,1-Diethoxy-N,n-Dimethyl-",CCOC(N(C)C)OCC,402.15,7,"[1, 6, 7, 8]",4,True,CHON,ester
2182,Spermidine,C(CCNCCCN)CN,402.15,7,"[1, 6, 7]",3,True,CHN,amine
2183,2-Methylpyridine,CC1=CC=CC=N1,402.45,6,"[1, 6, 7]",3,True,CHN,aromatic
2184,"1h-Pyrrole, 1-Ethyl-",CCN1C=CC=C1,402.65,6,"[1, 6, 7]",3,True,CHN,aromatic
2185,Pyrrole,C1=CNC=C1,402.84999999999997,4,"[1, 6, 7]",3,True,CHN,aromatic
2186,"Piperidine, 4-Methyl-",CC1CCNCC1,403.15,6,"[1, 6, 7]",3,True,CHN,amine
2187,"Piperazine, 1-(2-Methoxyphenyl)-",COC1=CC=CC=C1N2CCNCC2,404.65,11,"[1, 6, 7, 8]",4,True,CHON,ester
2188,2-Hydroxyethyl Carbamate,C(COC(=O)N)O,405.65,3,"[1, 6, 7, 8]",4,True,CHON,ester
2189,"Piperidine, 1-Ethyl-",CCN1CCCCC1,403.95,7,"[1, 6, 7]",3,True,CHN,amine
2190,"Piperazine, 1,4-Dimethyl-",CN1CCN(CC1)C,404.15,6,"[1, 6, 7]",3,True,CHN,amine
2191,"N,n-Dimethylbenzamide",CN(C)C(=O)C1=CC=CC=C1,405.65,9,"[1, 6, 7, 8]",4,True,CHON,amide
2192,"2-Hexanamine, 4-Methyl-",CCC(C)CC(C)N,405.65,7,"[1, 6, 7]",3,True,CHN,amine
2193,N-Hexylamine,CCCCCCN,405.95,6,"[1, 6, 7]",3,True,CHN,amine
2194,Crotethamide,CCC(C(=O)N(C)C)N(CC)C(=O)/C=C/C,406.15,12,"[1, 6, 7, 8]",4,True,CHON,amide
2195,"1,3-Propanediamine, N,n-Dimethyl-",CN(C)CCCN,406.15,5,"[1, 6, 7]",3,True,CHN,amine
2196,Cyclohexanamine,C1CCC(CC1)N,407.15,6,"[1, 6, 7]",3,True,CHN,amine
2197,"2h-Azepin-2-One, 1-Acetylhexahydro-",CC(=O)N1CCCCCC1=O,407.65,8,"[1, 6, 7, 8]",4,True,CHON,amide
2198,2-Dimethylaminoethanol,CN(C)CCO,407.25,4,"[1, 6, 7, 8]",4,True,CHON,alcohol
2199,"1,2-Ethanediamine, N'-Ethyl-N,n-Dimethyl-",CCNCCN(C)C,407.65,6,"[1, 6, 7]",3,True,CHN,amine
2200,"2-Butanamine, N-(1-Methylpropyl)-",CCC(C)NC(C)CC,408.15,8,"[1, 6, 7]",3,True,CHN,amine
2201,"Hexanol, 6-Amino-",C(CCCO)CCN,410.65,6,"[1, 6, 7, 8]",4,True,CHON,alcohol
2202,3-Ethoxy-Propionitrile,CCOCCC#N,409.15,5,"[1, 6, 7, 8]",4,True,CHON,ester
2203,Tert-Butyldiethanolamine,CC(C)(C)N(CCO)CCO,410.65,8,"[1, 6, 7, 8]",4,True,CHON,alcohol
2204,"2,4-Pentadienenitrile",C=C/C=C/C#N,409.65,5,"[1, 6, 7]",3,True,CHN,alkene
2205,Pheniprazine,CC(CC1=CC=CC=C1)NN,409.65,9,"[1, 6, 7]",3,True,CHN,aromatic
2206,Acetic Acid Hydrazide,CC(=O)NN,410.15,2,"[1, 6, 7, 8]",4,True,CHON,amide
2207,2-Methylpyrazine,CC1=NC=CN=C1,410.15,5,"[1, 6, 7]",3,True,CHN,aromatic
2208,"3,3-Dimethylpiperidine",CC1(CCCNC1)C,410.15,7,"[1, 6, 7]",3,True,CHN,amine
2209,"2-Pentanamine, 2,4,4-Trimethyl-",CC(C)(C)CC(C)(C)N,413.15,8,"[1, 6, 7]",3,True,CHN,amine
2210,"Piperazine, 1-Methyl-",CN1CCNCC1,411.15,5,"[1, 6, 7]",3,True,CHN,amine
2211,Hexamethyleneimine,C1CCCNCC1,411.15,6,"[1, 6, 7]",3,True,CHN,amine
2212,Ethyl Dipropylamine,CCCN(CC)CCC,411.15,8,"[1, 6, 7]",3,True,CHN,amine
2213,4-Hydroxy-3-Methoxyphenylacetonitrile,COC1=C(C=CC(=C1)CC#N)O,411.15,9,"[1, 6, 7, 8]",4,True,CHON,ester
2214,O-Methyltyramine,COC1=CC=C(C=C1)CCN,412.15,9,"[1, 6, 7, 8]",4,True,CHON,ester
2215,"1,3-Butanediamine",CC(CCN)N,412.65,4,"[1, 6, 7]",3,True,CHN,amine
2216,4-Ethylmorpholine,CCN1CCOCC1,411.65,6,"[1, 6, 7, 8]",4,True,CHON,ester
2217,Phenmetrazine,CC1C(OCCN1)C2=CC=CC=C2,412.15,11,"[1, 6, 7, 8]",4,True,CHON,ester
2218,4-Heptanamine,CCCC(CCC)N,412.65,7,"[1, 6, 7]",3,True,CHN,amine
2219,Diisobutylamine,CC(C)CNCC(C)C,412.75,8,"[1, 6, 7]",3,True,CHN,amine
2220,"1,3-Propanediamine",C(CN)CN,412.95,3,"[1, 6, 7]",3,True,CHN,amine
2221,"1,10-Diaminodecane",C(CCCCCN)CCCCN,413.15,10,"[1, 6, 7]",3,True,CHN,amine
2222,"Ethanamine, 2,2-Dimethoxy-n-Methyl-",CNCC(OC)OC,413.15,5,"[1, 6, 7, 8]",4,True,CHON,ester
2223,4-Pentenenitrile,C=CCCC#N,413.15,5,"[1, 6, 7]",3,True,CHN,alkene
2224,4-Pyridinemethanol,C1=CN=CC=C1CO,414.15,6,"[1, 6, 7, 8]",4,True,CHON,aromatic
2225,"1h-Pyrazole, 1-Phenyl-",C1=CC=C(C=C1)N2C=CC=N2,414.65,9,"[1, 6, 7]",3,True,CHN,aromatic
2226,4-Methylpyrimidine,CC1=NC=NC=C1,415.15,5,"[1, 6, 7]",3,True,CHN,aromatic
2227,2-Methoxypyridine,COC1=CC=CC=N1,415.15,6,"[1, 6, 7, 8]",4,True,CHON,ester
2228,2-Heptanamine,CCCCCC(C)N,415.15,7,"[1, 6, 7]",3,True,CHN,amine
2229,Diallylcyanamide,C=CCN(CC=C)C#N,415.65,7,"[1, 6, 7]",3,True,CHN,alkene
2230,(1-Methyl-Piperidin-3-Yl)-Methanol,CN1CCCC(C1)CO,415.65,7,"[1, 6, 7, 8]",4,True,CHON,alcohol
2231,3-Methylpyrrole,CC1=CNC=C1,416.15,5,"[1, 6, 7]",3,True,CHN,aromatic
2232,"Isoxazole, 3,5-Dimethyl-",CC1=CC(=NO1)C,416.15,5,"[1, 6, 7, 8]",4,True,CHON,aromatic
2233,2-Pyridinecarboxamide,C1=CC=NC(=C1)C(=O)N,416.15,6,"[1, 6, 7, 8]",4,True,CHON,aromatic
2234,"1,2-Ethanediamine, N,n-Diethyl-",CCN(CC)CCN,417.15,6,"[1, 6, 7]",3,True,CHN,amine
2235,"Piperidine, 3,5-Dimethyl-",CC1CC(CNC1)C,417.15,7,"[1, 6, 7]",3,True,CHN,amine
2236,"1,3-Propanediamine, N,n,n',n'-Tetramethyl-",CN(C)CCCN(C)C,417.15,7,"[1, 6, 7]",3,True,CHN,amine
2237,3-Methylpyridine,CC1=CN=CC=C1,417.25,6,"[1, 6, 7]",3,True,CHN,aromatic
2238,"2,6-Lutidine",CC1=NC(=CC=C1)C,417.25,7,"[1, 6, 7]",3,True,CHN,aromatic
2239,"2,4,6-Trimethyl-Piperidine",CC1CC(NC(C1)C)C,418.15,8,"[1, 6, 7]",3,True,CHN,amine
2240,4-Methylpyridine,CC1=CC=NC=C1,418.45,6,"[1, 6, 7]",3,True,CHN,aromatic
2241,2-Aminomethylfuran,C1=COC(=C1)CN,418.65,5,"[1, 6, 7, 8]",4,True,CHON,aromatic
2242,Piperazine,C1CNCCN1,419.15,4,"[1, 6, 7]",3,True,CHN,amine
2243,"Morpholine, 2,6-Dimethyl-",CC1CNCC(O1)C,419.75,6,"[1, 6, 7, 8]",4,True,CHON,ester
2244,"Piperidine, 1,2,2,6,6-Pentamethyl-",CC1(CCCC(N1C)(C)C)C,420.15,10,"[1, 6, 7]",3,True,CHN,amine
2245,2-Cyanofuran,C1=COC(=C1)C#N,420.15,5,"[1, 6, 7, 8]",4,True,CHON,aromatic
2246,2-Methylpyrrole,CC1=CC=CN1,420.15,5,"[1, 6, 7]",3,True,CHN,aromatic
2247,"Cyclohexanamine, N-Methyl-",CNC1CCCCC1,420.15,7,"[1, 6, 7]",3,True,CHN,amine
2248,2-Azacyclooctanone,C1CCCNC(=O)CC1,422.15,7,"[1, 6, 7, 8]",4,True,CHON,amide
2249,"Pyridine, 5-Amino-2-Butoxy-",CCCCOC1=NC=C(C=C1)N,422.15,9,"[1, 6, 7, 8]",4,True,CHON,ester
2250,2-Ethylpyridine,CCC1=CC=CC=N1,421.75,7,"[1, 6, 7]",3,True,CHN,aromatic
2251,Amino-Acetic Acid Ethyl Ester,CCOC(=O)CN,422.15,4,"[1, 6, 7, 8]",4,True,CHON,ester
2252,"2-Furanmethanamine, N-Methyl-",CNCC1=CC=CO1,422.15,6,"[1, 6, 7, 8]",4,True,CHON,aromatic
2253,"1-Hexanamine, 3-Methyl-",CCCC(C)CCN,422.15,7,"[1, 6, 7]",3,True,CHN,amine
2254,O-Cyanophenol,C1=CC=C(C(=C1)C#N)O,422.15,7,"[1, 6, 7, 8]",4,True,CHON,aromatic
2255,"Piperazine, 1,2,4-Trimethyl-",CC1CN(CCN1C)C,422.65,7,"[1, 6, 7]",3,True,CHN,amine
2256,7-Azabicyclo[4.1.0]heptane,C1CCC2C(C1)N2,423.15,6,"[1, 6, 7]",3,True,CHN,amine
2257,"Ethanol, 2-(methylphenylamino)-",CN(CCO)C1=CC=CC=C1,423.15,9,"[1, 6, 7, 8]",4,True,CHON,aromatic
2258,"1,4-Piperazinedipropanamine",C1CN(CCN1CCCN)CCCN,424.15,10,"[1, 6, 7]",3,True,CHN,amine
2259,"1-Propanol, 2-(dimethylamino)-",CC(CO)N(C)C,423.45,5,"[1, 6, 7, 8]",4,True,CHON,alcohol
2260,"Pyrimidine, 2,4-Dimethyl-",CC1=NC(=NC=C1)C,423.65,6,"[1, 6, 7]",3,True,CHN,aromatic
2261,1-Propylpiperidine,CCCN1CCCCC1,424.65,8,"[1, 6, 7]",3,True,CHN,amine
2262,"Acetic Acid, 2-(dimethylamino)ethyl Ester",CC(=O)OCCN(C)C,425.15,6,"[1, 6, 7, 8]",4,True,CHON,ester
2263,Oxotremorine,C1CCN(C1)CC#CCN2CCCC2=O,425.65,12,"[1, 6, 7, 8]",4,True,CHON,amide
2264,"1,3-Propanediol, 2-Amino-2-Ethyl-",CCC(CO)(CO)N,425.65,5,"[1, 6, 7, 8]",4,True,CHON,alcohol
2265,2-Ethyl Pyrazine,CCC1=NC=CN=C1,425.65,6,"[1, 6, 7]",3,True,CHN,aromatic
2266,"2-Furanmethanamine, Tetrahydro-",C1CC(OC1)CN,426.15,5,"[1, 6, 7, 8]",4,True,CHON,ester
2267,"Piperazine, 2-Methyl-",CC1CNCCN1,426.15,5,"[1, 6, 7]",3,True,CHN,amine
2268,"Pyrimidine, 5-Methyl-",CC1=CN=CN=C1,426.15,5,"[1, 6, 7]",3,True,CHN,aromatic
2269,4-Ethylpiperidine,CCC1CCNCC1,427.15,7,"[1, 6, 7]",3,True,CHN,amine
2270,3-(1-Nitroso-2-Pyrrolidinyl)pyridine,C1CC(N(C1)N=O)C2=CN=CC=C2,427.15,9,"[1, 6, 7, 8]",4,True,CHON,aromatic
2271,N-Butylpyrrolidine,CCCCN1CCCC1,427.65,8,"[1, 6, 7]",3,True,CHN,amine
2272,"2,5-Dimethylpyrazine",CC1=CN=C(C=N1)C,428.15,6,"[1, 6, 7]",3,True,CHN,aromatic
2273,"3-Piperidinamine, 1-Ethyl-",CCN1CCCC(C1)N,428.15,7,"[1, 6, 7]",3,True,CHN,amine
2274,Octodrine,CC(C)CCCC(C)N,428.15,8,"[1, 6, 7]",3,True,CHN,amine
2275,Triallylamine,C=CCN(CC=C)CC=C,428.65,9,"[1, 6, 7]",3,True,CHN,alkene
2276,"Pyrazine, 2,6-Dimethyl-",CC1=CN=CC(=N1)C,428.75,6,"[1, 6, 7]",3,True,CHN,aromatic
2277,"Benzamide, N,n,4-Trimethyl-",CC1=CC=C(C=C1)C(=O)N(C)C,429.15,10,"[1, 6, 7, 8]",4,True,CHON,amide
2278,"Furazan, Dimethyl-",CC1=NON=C1C,429.15,4,"[1, 6, 7, 8]",4,True,CHON,aromatic
2279,"Pyrazine, 2,3-Dimethyl-",CC1=NC=CN=C1C,429.15,6,"[1, 6, 7]",3,True,CHN,aromatic
2280,Heptylamine,CCCCCCCN,429.15,7,"[1, 6, 7]",3,True,CHN,amine
2281,"Piperidine, 2,2,6,6-Tetramethyl-",CC1(CCCC(N1)(C)C)C,429.15,9,"[1, 6, 7]",3,True,CHN,amine
2282,Tripropylamine,CCCN(CCC)CCC,429.15,9,"[1, 6, 7]",3,True,CHN,amine
2283,4-Hexyloxyaniline,CCCCCCOC1=CC=C(C=C1)N,429.65,12,"[1, 6, 7, 8]",4,True,CHON,ester
2284,"3,4-Methylenedioxyamphetamine",CC(CC1=CC2=C(C=C1)OCO2)N,430.15,10,"[1, 6, 7, 8]",4,True,CHON,ester
2285,Nicotinamide,C1=CC(=CN=C1)C(=O)N,430.15,6,"[1, 6, 7, 8]",4,True,CHON,aromatic
2286,N-Benzylacetamide,CC(=O)NCC1=CC=CC=C1,430.15,9,"[1, 6, 7, 8]",4,True,CHON,aromatic
2287,8-Aminoquinoline,C1=CC2=C(C(=C1)N)N=CC=C2,430.15,9,"[1, 6, 7]",3,True,CHN,aromatic
2288,Indole-3-Acetonitrile,C1=CC=C2C(=C1)C(=CN2)CC#N,431.65,10,"[1, 6, 7]",3,True,CHN,aromatic
2289,"2,5-Dimethylpyridine",CC1=CN=C(C=C1)C,430.15,7,"[1, 6, 7]",3,True,CHN,aromatic
2290,2-(methylamino)ethanol,CNCCO,431.15,3,"[1, 6, 7, 8]",4,True,CHON,alcohol
2291,"1,4-Butanediamine",C(CCN)CN,431.65,4,"[1, 6, 7]",3,True,CHN,amine
2292,"2,4-Dimethylpyridine",CC1=CC(=NC=C1)C,431.65,7,"[1, 6, 7]",3,True,CHN,aromatic
2293,"4,6-Dimethylpyrimidine",CC1=CC(=NC=N1)C,432.15,6,"[1, 6, 7]",3,True,CHN,aromatic
2294,2-Vinylpyridine,C=CC1=CC=CC=N1,432.65,7,"[1, 6, 7]",3,True,CHN,alkene
2295,Dibutylamine,CCCCNCCCC,432.75,8,"[1, 6, 7]",3,True,CHN,amine
2296,2-Isopropylpyridine,CC(C)C1=CC=CC=N1,432.95,8,"[1, 6, 7]",3,True,CHN,aromatic
2297,Ethylamine,CCN,289.75,2,"[1, 6, 7]",3,True,CHN,amine
2298,2-Cyanoquinoline,C1=CC=C2C(=C1)C=CC(=N2)C#N,433.15,10,"[1, 6, 7]",3,True,CHN,aromatic
2299,1-Amino-2-Propanol,CC(CN)O,433.15,3,"[1, 6, 7, 8]",4,True,CHON,alcohol
2300,Dmamp,CC(C)(CO)N(C)C,433.15,6,"[1, 6, 7, 8]",4,True,CHON,alcohol
2301,"1h-Benzotriazole, 4(or 5)-Methyl-",CC1=CC=CC2=NNN=C12,433.15,7,"[1, 6, 7]",3,True,CHN,aromatic
2302,Phenylethanolamine,C1=CC=C(C=C1)C(CN)O,433.15,8,"[1, 6, 7, 8]",4,True,CHON,aromatic
2303,"Cyclohexanamine, N,n-Dimethyl-",CN(C)C1CCCCC1,433.15,8,"[1, 6, 7]",3,True,CHN,amine
2304,"Pyridine, 2-Ethyl-6-Methyl-",CCC1=CC=CC(=N1)C,433.65,8,"[1, 6, 7]",3,True,CHN,aromatic
2305,"2,3-Dimethylpyridine",CC1=C(N=CC=C1)C,434.34999999999997,7,"[1, 6, 7]",3,True,CHN,aromatic
2306,"[1,1'-Biphenyl]-2,2'-Diamine",C1=CC=C(C(=C1)C2=CC=CC=C2N)N,435.15,12,"[1, 6, 7]",3,True,CHN,aromatic
2307,4-Dimethylaminopyridine,CN(C)C1=CC=NC=C1,435.15,7,"[1, 6, 7]",3,True,CHN,aromatic
2308,"Pyridine, 3-Ethenyl-",C=CC1=CN=CC=C1,435.15,7,"[1, 6, 7]",3,True,CHN,alkene
2309,"1,3,5-Triazine, Hexahydro-1,3,5-Trimethyl-",CN1CN(CN(C1)C)C,435.9,6,"[1, 6, 7]",3,True,CHN,amine
2310,"Propanenitrile, 3-Methoxy-",COCCC#N,436.15,4,"[1, 6, 7, 8]",4,True,CHON,ester
2311,2-(diethylamino)-Ethanol,CCN(CC)CCO,436.15,6,"[1, 6, 7, 8]",4,True,CHON,alcohol
2312,"Ethanamine, 2,2-Diethoxy-",CCOC(CN)OCC,436.15,6,"[1, 6, 7, 8]",4,True,CHON,ester
2313,Phenyl Isocyanate,C1=CC=C(C=C1)N=C=O,436.15,7,"[1, 6, 7, 8]",4,True,CHON,aromatic
2314,"3,4-Dimethoxyphenethylamine",COC1=C(C=C(C=C1)CCN)OC,437.15,10,"[1, 6, 7, 8]",4,True,CHON,ester
2315,Dimethyl Cyanamide,CN(C)C#N,436.65,3,"[1, 6, 7]",3,True,CHN,amine
2316,"1-Propanol, 3-(dimethylamino)-",CN(C)CCCO,436.65,5,"[1, 6, 7, 8]",4,True,CHON,alcohol
2317,"2,5-Dimethylpiperazine",CC1CNC(CN1)C,437.15,6,"[1, 6, 7]",3,True,CHN,amine
2318,"Phenol, 3-Amino-",C1=CC(=CC(=C1)O)N,437.15,6,"[1, 6, 7, 8]",4,True,CHON,alcohol
2319,"1h-Pyrrole, 2-Ethyl-",CCC1=CC=CN1,437.15,6,"[1, 6, 7]",3,True,CHN,aromatic
2320,"Cyclohexanamine, N-Ethyl-",CCNC1CCCCC1,437.15,8,"[1, 6, 7]",3,True,CHN,amine
2321,Indole-3-Acetic Acid Ethyl Ester,CCOC(=O)CC1=CNC2=CC=CC=C21,438.15,12,"[1, 6, 7, 8]",4,True,CHON,ester
2322,3-Ethylpyridine,CCC1=CN=CC=C1,438.15,7,"[1, 6, 7]",3,True,CHN,aromatic
2323,2-Octanamine,CCCCCCC(C)N,438.15,8,"[1, 6, 7]",3,True,CHN,amine
2324,"N,n,n',n'-Tetramethyl-1,3-Butanediamine",CC(CCN(C)C)N(C)C,438.15,8,"[1, 6, 7]",3,True,CHN,amine
2325,N-Phenylmorpholine,C1COCCN1C2=CC=CC=C2,440.65,10,"[1, 6, 7, 8]",4,True,CHON,ester
2326,2-Amino-2-Methyl-1-Propanol,CC(C)(CO)N,438.65,4,"[1, 6, 7, 8]",4,True,CHON,alcohol
2327,"Methanediamine, N,n,n',n'-Tetraethyl-",CCN(CC)CN(CC)CC,438.95,9,"[1, 6, 7]",3,True,CHN,amine
2328,"Benzenamine, 4-Cyclohexyl-",C1CCC(CC1)C2=CC=C(C=C2)N,439.15,12,"[1, 6, 7]",3,True,CHN,aromatic
2329,Morpholin-4-Ylamine,C1COCCN1N,439.15,4,"[1, 6, 7, 8]",4,True,CHON,ester
2330,Tropane,CN1C2CCCC1CC2,439.15,8,"[1, 6, 7]",3,True,CHN,amine
2331,"3,4-Methylenedioxyphenethylamine",C1OC2=C(O1)C=C(C=C2)CCN,439.15,9,"[1, 6, 7, 8]",4,True,CHON,ester
2332,2-Propylpiperidine,CCCC1CCCCN1,439.65,8,"[1, 6, 7]",3,True,CHN,amine
2333,"Pyridine, 2-Propyl-",CCCC1=CC=CC=N1,440.15,8,"[1, 6, 7]",3,True,CHN,aromatic
2334,"2,4-Diazaspiro[5.5]undecane-1,3,5-Trione",C1CCC2(CC1)C(=O)NC(=O)NC2=O,440.15,9,"[1, 6, 7, 8]",4,True,CHON,amide
2335,1-Aziridineethanol,C1CN1CCO,441.15,4,"[1, 6, 7, 8]",4,True,CHON,alcohol
2336,"1h-Pyrrole, 2,4-Dimethyl-",CC1=CC(=CN1)C,441.15,6,"[1, 6, 7]",3,True,CHN,aromatic
2337,"1,4-Butanediamine, N,n,n',n'-Tetramethyl-",CN(C)CCCCN(C)C,441.15,8,"[1, 6, 7]",3,True,CHN,amine
2338,4-Ethylpyridine,CCC1=CC=NC=C1,441.45,7,"[1, 6, 7]",3,True,CHN,aromatic
2339,"1,3-Propanediamine, N,n-Diethyl-",CCN(CC)CCCN,441.65,7,"[1, 6, 7]",3,True,CHN,amine
2340,1-Amino-2-Butanol,CCC(CN)O,442.15,4,"[1, 6, 7, 8]",4,True,CHON,alcohol
2341,"1h-1,4-Diazepine, Hexahydro-",C1CNCCNC1,442.15,5,"[1, 6, 7]",3,True,CHN,amine
2342,2-Ethylhexylamine,CCCCC(CC)CN,442.15,8,"[1, 6, 7]",3,True,CHN,amine
2343,"Benzeneacetamide, N,n-Diethyl-",CCN(CC)C(=O)CC1=CC=CC=C1,443.15,12,"[1, 6, 7, 8]",4,True,CHON,amide
2344,"1h-Benzimidazole, 5-Methyl-",CC1=CC2=C(C=C1)N=CN2,443.65,8,"[1, 6, 7]",3,True,CHN,aromatic
2345,"Ethanol, 2-(ethylamino)-",CCNCCO,442.65,4,"[1, 6, 7, 8]",4,True,CHON,alcohol
2346,"2,4-Dimethylacetanilide",CC1=CC(=C(C=C1)NC(=O)C)C,443.15,10,"[1, 6, 7, 8]",4,True,CHON,aromatic
2347,"Acetonitrile, M-Phenylenedi-",C1=CC(=CC(=C1)CC#N)CC#N,443.15,10,"[1, 6, 7]",3,True,CHN,aromatic
2348,"1h-Pyrazole, 1,3,5-Trimethyl-",CC1=CC(=NN1C)C,443.15,6,"[1, 6, 7]",3,True,CHN,aromatic
2349,"Acetonitrile, (diethylamino)-",CCN(CC)CC#N,443.15,6,"[1, 6, 7]",3,True,CHN,amine
2350,Bucrylate,CC(C)COC(=O)C(=C)C#N,443.15,8,"[1, 6, 7, 8]",4,True,CHON,ester
2351,2-t-Butylpyridine,CC(C)(C)C1=CC=CC=N1,443.15,9,"[1, 6, 7]",3,True,CHN,aromatic
2352,Dimetan,CC1(CC(=CC(=O)C1)OC(=O)N(C)C)C,448.15,11,"[1, 6, 7, 8]",4,True,CHON,ester
2353,"1h-Pyrrole, 1-Butyl-",CCCCN1C=CC=C1,443.65,8,"[1, 6, 7]",3,True,CHN,aromatic
2354,"2,4,6-Collidine",CC1=CC(=NC(=C1)C)C,443.75,8,"[1, 6, 7]",3,True,CHN,aromatic
2355,Ethanolamine,C(CO)N,443.95,2,"[1, 6, 7, 8]",4,True,CHON,alcohol
2356,Acetone Cyanohydrin,CC(C)(C#N)O,444.15,4,"[1, 6, 7, 8]",4,True,CHON,alcohol
2357,"2,5-Dimethylpyrrole",CC1=CC=C(N1)C,444.15,6,"[1, 6, 7]",3,True,CHN,aromatic
2358,"1,2,5-Trimethylpyrrole",CC1=CC=C(N1C)C,444.15,7,"[1, 6, 7]",3,True,CHN,aromatic
2359,"Cyclopentaneethanamine, N,.alpha.-Dimethyl-",CC(CC1CCCC1)NC,444.15,9,"[1, 6, 7]",3,True,CHN,amine
2360,"3,4-Dimethoxyphenylacetonitrile",COC1=C(C=C(C=C1)CC#N)OC,447.65,10,"[1, 6, 7, 8]",4,True,CHON,ester
2361,"Pyrazine, Trimethyl-",CC1=CN=C(C(=N1)C)C,444.65,7,"[1, 6, 7]",3,True,CHN,aromatic
2362,"Pyridine, 2,3,6-Trimethyl-",CC1=C(N=C(C=C1)C)C,444.75,8,"[1, 6, 7]",3,True,CHN,aromatic
2363,"3,5-Dimethylpyridine",CC1=CC(=CN=C1)C,445.15,7,"[1, 6, 7]",3,True,CHN,aromatic
2364,"Propanenitrile, 3-(dimethylamino)-",CN(C)CCC#N,446.15,5,"[1, 6, 7]",3,True,CHN,amine
2365,4-Propyl-Piperidine,CCCC1CCNCC1,446.15,8,"[1, 6, 7]",3,True,CHN,amine
2366,2-Aminopropanol,CC(CO)N,447.15,3,"[1, 6, 7, 8]",4,True,CHON,alcohol