,Name,SMILES,Tb,C Atom,Atom,Count Unique Atom,Pass Screen,Atom2,Func. Group
9220,"1-N-[2-(3-methylpiperazin-1-yl)ethyl]propane-1,2-diamine",CC1CN(CCN1)CCNCC(C)N,626.93,10,"[1, 6, 7]",3,True,CHN,amine
9221,"2-N-[2-(3-methylpiperazin-1-yl)ethyl]propane-1,2-diamine",CC1CN(CCN1)CCNC(C)CN,626.93,10,"[1, 6, 7]",3,True,CHN,amine
9222,dimethyl (E)-2-[[acetyl(methyl)amino]-methylamino]but-2-enedioate,CC(=O)N(C)N(C)/C(=C/C(=O)OC)/C(=O)OC,627.63,10,"[1, 6, 7, 8]",4,True,CHON,ester
9223,"3,3-diethyl-5-methylpiperidine-2,4-dione",CCC1(C(=O)C(CNC1=O)C)CC,627.71,10,"[1, 6, 7, 8]",4,True,CHON,amide
9224,5-(2-hydroxypropan-2-yl)-2-methylcyclohex-2-en-1-ol,CC1=CCC(CC1O)C(C)(C)O,628.55,10,"[1, 6, 8]",3,True,CHO,alkene
9225,"2-cyclohexyl-2-methylpropane-1,3-diol",CC(CO)(CO)C1CCCCC1,629.08,10,"[1, 6, 8]",3,True,CHO,alcohol
9226,"2-(3-acetyl-2,2-dimethylcyclobutyl)acetic acid",CC(=O)C1CC(C1(C)C)CC(=O)O,629.69,10,"[1, 6, 8]",3,True,CHO,carboxylic_acid
9227,"1-(2-hydroxyethoxy)-2,2,4-trimethylpentan-3-ol",CC(C)C(C(C)(C)COCCO)O,631.07,10,"[1, 6, 8]",3,True,CHO,ester
9228,"1-cyclohexylbutane-1,2-diol",CCC(C(C1CCCCC1)O)O,631.43,10,"[1, 6, 8]",3,True,CHO,alcohol
9229,8-ethoxy-8-oxooctanoic acid,CCOC(=O)CCCCCCC(=O)O,632.13,10,"[1, 6, 8]",3,True,CHO,carboxylic_acid
9230,2-[1-(2-hydroxyethyl)cyclohexyl]ethanol,C1CCC(CC1)(CCO)CCO,632.55,10,"[1, 6, 8]",3,True,CHO,alcohol
9231,"2-acetyl-5,5-dimethylcyclohexane-1,3-dione",CC(=O)C1C(=O)CC(CC1=O)(C)C,633.03,10,"[1, 6, 8]",3,True,CHO,ketone
9232,"2,2,6,6-tetramethylpiperidine-4-carboxylic acid",CC1(CC(CC(N1)(C)C)C(=O)O)C,633.15,10,"[1, 6, 7, 8]",4,True,CHON,carboxylic_acid
9233,N-(hydroxymethyl)-N-(2-methyl-4-oxopentan-2-yl)prop-2-enamide,CC(=O)CC(C)(C)N(CO)C(=O)C=C,634.21,10,"[1, 6, 7, 8]",4,True,CHON,amide
9234,"3-heptoxypropane-1,2-diol",CCCCCCCOCC(CO)O,634.74,10,"[1, 6, 8]",3,True,CHO,ester
9235,"2,5-bis(aziridin-1-yl)cyclohexa-2,5-diene-1,4-dione",C1CN1C2=CC(=O)C(=CC2=O)N3CC3,635.7,10,"[1, 6, 7, 8]",4,True,CHON,ketone
9236,1-(1H-indol-5-yl)ethanone,CC(=O)C1=CC2=C(C=C1)NC=C2,636.15,10,"[1, 6, 7, 8]",4,True,CHON,aromatic
9237,(E)-4-hexoxy-4-oxobut-2-enoic acid,CCCCCCOC(=O)/C=C/C(=O)O,636.29,10,"[1, 6, 8]",3,True,CHO,carboxylic_acid
9238,N-[2-(butanoylamino)ethyl]butanamide,CCCC(=O)NCCNC(=O)CCC,636.48,10,"[1, 6, 7, 8]",4,True,CHON,amide
9239,N-(6-acetamidohexyl)acetamide,CC(=O)NCCCCCCNC(=O)C,636.48,10,"[1, 6, 7, 8]",4,True,CHON,amide
9240,"3,3-diethyl-5-methyl-1H-pyridine-2,4-dione",CCC1(C(=O)C(=CNC1=O)C)CC,636.52,10,"[1, 6, 7, 8]",4,True,CHON,amide
9241,"(1S,4R)-4,7,7-trimethyl-3-oxo-2-oxabicyclo[2.2.1]heptane-1-carboxylic acid",C[C@@]12CC[C@@](C1(C)C)(OC2=O)C(=O)O,637.39,10,"[1, 6, 8]",3,True,CHO,carboxylic_acid
9242,tert-butyl N-[(2-methylpropan-2-yl)oxycarbonylamino]carbamate,CC(C)(C)OC(=O)NNC(=O)OC(C)(C)C,638.72,10,"[1, 6, 7, 8]",4,True,CHON,ester
9243,3-methoxycarbonylbicyclo[2.2.1]hept-5-ene-2-carboxylic acid,COC(=O)C1C2CC(C1C(=O)O)C=C2,639.7,10,"[1, 6, 8]",3,True,CHO,carboxylic_acid
9244,3-[1-(2-hydroxyethyl)piperidin-4-yl]propan-1-ol,C1CN(CCC1CCCO)CCO,640.48,10,"[1, 6, 7, 8]",4,True,CHON,alcohol
9245,3-[2-[2-(3-aminopropoxy)ethoxy]ethoxy]propan-1-amine,C(CN)COCCOCCOCCCN,640.72,10,"[1, 6, 7, 8]",4,True,CHON,ester
9246,1-O-butyl 4-O-(2-hydroxyethyl) (Z)-but-2-enedioate,CCCCOC(=O)/C=C\C(=O)OCCO,641.18,10,"[1, 6, 8]",3,True,CHO,ester
9247,methyl (E)-3-(tert-butylcarbamoylamino)but-2-enoate,C/C(=C\C(=O)OC)/NC(=O)NC(C)(C)C,641.64,10,"[1, 6, 7, 8]",4,True,CHON,ester
9248,"3,4-diacetylhexane-2,5-dione",CC(=O)C(C(C(=O)C)C(=O)C)C(=O)C,643.0,10,"[1, 6, 8]",3,True,CHO,ketone
9249,"cyclodecane-1,2-diol",C1CCCCC(C(CCC1)O)O,644.72,10,"[1, 6, 8]",3,True,CHO,alcohol
9250,diethyl 2-(2-cyanoethyl)propanedioate,CCOC(=O)C(CCC#N)C(=O)OCC,646.48,10,"[1, 6, 7, 8]",4,True,CHON,ester
9251,"4,4,6,6-tetramethylcyclohexane-1,2,3-trione",CC1(CC(C(=O)C(=O)C1=O)(C)C)C,647.22,10,"[1, 6, 8]",3,True,CHO,ketone
9252,"1,4,7,10-tetraoxa-13-azacyclopentadecane",C1COCCOCCOCCOCCN1,647.4,10,"[1, 6, 7, 8]",4,True,CHON,ester
9253,2-[2-acetyloxyethyl(2-hydroxyethyl)amino]ethyl acetate,CC(=O)OCCN(CCO)CCOC(=O)C,649.46,10,"[1, 6, 7, 8]",4,True,CHON,ester
9254,N-(4-acetamidocyclohexyl)acetamide,CC(=O)NC1CCC(CC1)NC(=O)C,651.36,10,"[1, 6, 7, 8]",4,True,CHON,amide
9255,1-[4-(2-hydroxypropyl)piperazin-1-yl]propan-2-ol,CC(CN1CCN(CC1)CC(C)O)O,652.44,10,"[1, 6, 7, 8]",4,True,CHON,alcohol
9256,7-methyl-1H-quinolin-2-one,CC1=CC2=C(C=C1)C=CC(=O)N2,653.15,10,"[1, 6, 7, 8]",4,True,CHON,aromatic
9257,"N'-[2-[2-[2-(2-aminoethylamino)ethylamino]ethylamino]ethyl]ethane-1,2-diamine",C(CNCCNCCNCCNCCN)N,653.15,10,"[1, 6, 7]",3,True,CHN,amine
9258,(E)-4-cyclohexyloxy-4-oxobut-2-enoic acid,C1CCC(CC1)OC(=O)/C=C/C(=O)O,655.84,10,"[1, 6, 8]",3,True,CHO,carboxylic_acid
9259,"1,3,6,9,11,14-hexaoxacyclohexadecane",C1COCOCCOCCOCOCCO1,657.02,10,"[1, 6, 8]",3,True,CHO,ester
9260,"bicyclo[2.2.2]octa-2,5-diene-2,3-dicarbonitrile",C1CC2C=CC1C(=C2C#N)C#N,662.86,10,"[1, 6, 7]",3,True,CHN,alkene
9261,ethyl 4-acetyl-5-hydroxy-2-methylfuran-3-carboxylate,CCOC(=O)C1=C(OC(=C1C(=O)C)O)C,664.07,10,"[1, 6, 8]",3,True,CHO,ester
9262,"2,2-bis(hydroxymethyl)butyl 2-methylprop-2-enoate",CCC(CO)(CO)COC(=O)C(=C)C,664.31,10,"[1, 6, 8]",3,True,CHO,ester
9263,"(3-hydroxy-2,2-dimethylpropyl) 3-hydroxy-2,2-dimethylpropanoate",CC(C)(CO)COC(=O)C(C)(C)CO,664.52,10,"[1, 6, 8]",3,True,CHO,ester
9264,6-hydroxydecanoic acid,CCCCC(CCCCC(=O)O)O,665.65,10,"[1, 6, 8]",3,True,CHO,alcohol
9265,10-hydroxydecanoic acid,C(CCCCC(=O)O)CCCCO,666.09,10,"[1, 6, 8]",3,True,CHO,alcohol
9266,N-acetyl-N-[2-(diacetylamino)ethyl]acetamide,CC(=O)N(CCN(C(=O)C)C(=O)C)C(=O)C,668.76,10,"[1, 6, 7, 8]",4,True,CHON,amide
9267,"1,4,10-trioxa-7,13-diazacyclopentadecane",C1COCCNCCOCCOCCN1,669.0,10,"[1, 6, 7, 8]",4,True,CHON,ester
9268,(1-ethynylcyclohexyl) N-carbamoylcarbamate,C#CC1(CCCCC1)OC(=O)NC(=O)N,673.1,10,"[1, 6, 7, 8]",4,True,CHON,ester
9269,3-[4-(2-cyanoethyl)piperazin-1-yl]propanenitrile,C1CN(CCN1CCC#N)CCC#N,673.12,10,"[1, 6, 7]",3,True,CHN,amine
9270,"N,N'-bis(3-aminopropyl)butane-1,4-diamine",C(CCNCCCN)CNCCCN,673.8,10,"[1, 6, 7]",3,True,CHN,amine
9271,"5-(methylcarbamoyl)tetracyclo[3.2.0.02,7.04,6]heptane-1-carboxylic acid",CNC(=O)C12C3C1C4C2(C4C3)C(=O)O,674.7,10,"[1, 6, 7, 8]",4,True,CHON,carboxylic_acid
9272,N-[4-(aziridine-1-carbonylamino)butyl]aziridine-1-carboxamide,C1CN1C(=O)NCCCCNC(=O)N2CC2,675.64,10,"[1, 6, 7, 8]",4,True,CHON,amide
9273,"5-ethyl-5-(2-methylbutyl)imidazolidine-2,4-dione",CCC(C)CC1(C(=O)NC(=O)N1)CC,676.22,10,"[1, 6, 7, 8]",4,True,CHON,amide
9274,3-[4-(2-cyanoethoxy)butoxy]propanenitrile,C(CCOCCC#N)COCCC#N,677.4,10,"[1, 6, 7, 8]",4,True,CHON,ester
9275,2-(octanoylamino)acetic acid,CCCCCCCC(=O)NCC(=O)O,677.95,10,"[1, 6, 7, 8]",4,True,CHON,carboxylic_acid
9276,5-[(2-methylpropan-2-yl)oxycarbonylamino]pentanoic acid,CC(C)(C)OC(=O)NCCCCC(=O)O,679.07,10,"[1, 6, 7, 8]",4,True,CHON,carboxylic_acid
9277,"N,N-bis(2-hydroxyethyl)hexanamide",CCCCCC(=O)N(CCO)CCO,679.07,10,"[1, 6, 7, 8]",4,True,CHON,amide
9278,"1,4,8,11-tetrazacyclotetradecane",C1CNCCNCCCNCCNC1,680.98,10,"[1, 6, 7]",3,True,CHN,amine
9279,"4-hydroxy-2,2,6,6-tetramethylpiperidine-4-carbonitrile",CC1(CC(CC(N1)(C)C)(C#N)O)C,682.14,10,"[1, 6, 7, 8]",4,True,CHON,alcohol
9280,"(3aS,7aS)-3a-hydroxy-7a-methyl-3,4,6,7-tetrahydro-2H-indene-1,5-dione",C[C@]12CCC(=O)C[C@]1(CCC2=O)O,682.99,10,"[1, 6, 8]",3,True,CHO,alcohol
9281,2-(1-hydroxycyclohexyl)butanoic acid,CCC(C(=O)O)C1(CCCCC1)O,685.44,10,"[1, 6, 8]",3,True,CHO,alcohol
9282,"[2-(carbamoyloxymethyl)-2,3-dimethylpentyl] carbamate",CCC(C)C(C)(COC(=O)N)COC(=O)N,686.23,10,"[1, 6, 7, 8]",4,True,CHON,ester
9283,1-(tert-butyldiazenyl)cyclohexan-1-ol,CC(C)(C)N=NC1(CCCCC1)O,686.34,10,"[1, 6, 7, 8]",4,True,CHON,alcohol
9284,4-[2-(2-methylprop-2-enoyloxy)ethoxy]-4-oxobutanoic acid,CC(=C)C(=O)OCCOC(=O)CCC(=O)O,686.91,10,"[1, 6, 8]",3,True,CHO,carboxylic_acid
9285,2-[(E)-2-acetyloxypropan-2-yldiazenyl]propan-2-yl acetate,CC(=O)OC(C)(C)/N=N/C(C)(C)OC(=O)C,687.58,10,"[1, 6, 7, 8]",4,True,CHON,ester
9286,"3-(2,4-dioxopentan-3-ylperoxy)pentane-2,4-dione",CC(=O)C(C(=O)C)OOC(C(=O)C)C(=O)C,687.84,10,"[1, 6, 8]",3,True,CHO,ester
9287,3-(2-aminoethyl)-1H-indol-5-ol,C1=CC2=C(C=C1O)C(=CN2)CCN,689.15,10,"[1, 6, 7, 8]",4,True,CHON,alcohol
9288,"2-(2-hydroxyethyl)-3a,4,7,7a-tetrahydroisoindole-1,3-dione",C1C=CCC2C1C(=O)N(C2=O)CCO,689.84,10,"[1, 6, 7, 8]",4,True,CHON,amide
9289,2-[2-(azocan-1-yl)ethyl]guanidine,C1CCCN(CCC1)CCN=C(N)N,690.95,10,"[1, 6, 7]",3,True,CHN,amine
9290,(Z)-4-[2-(2-methylprop-2-enoyloxy)ethoxy]-4-oxobut-2-enoic acid,CC(=C)C(=O)OCCOC(=O)/C=C\C(=O)O,691.07,10,"[1, 6, 8]",3,True,CHO,carboxylic_acid
9291,3-cyanobicyclo[2.2.2]octane-1-carboxylic acid,C1CC2(CCC1C(C2)C#N)C(=O)O,693.58,10,"[1, 6, 7, 8]",4,True,CHON,alcohol
9292,2-cyanobicyclo[2.2.2]octane-1-carboxylic acid,C1CC2(CCC1CC2C#N)C(=O)O,693.58,10,"[1, 6, 7, 8]",4,True,CHON,alcohol
9293,"dimethyl 2,5-dioxocyclohexane-1,4-dicarboxylate",COC(=O)C1CC(=O)C(CC1=O)C(=O)OC,695.36,10,"[1, 6, 8]",3,True,CHO,ester
9294,4-cyanobicyclo[2.2.2]oct-2-ene-1-carboxylic acid,C1CC2(CCC1(C=C2)C#N)C(=O)O,697.65,10,"[1, 6, 7, 8]",4,True,CHON,alkene
9295,4-cyanobicyclo[2.2.2]octane-1-carboxylic acid,C1CC2(CCC1(CC2)C#N)C(=O)O,698.49,10,"[1, 6, 7, 8]",4,True,CHON,alcohol
9296,"2-(2,6-dimethylpyran-4-ylidene)propanedinitrile",CC1=CC(=C(C#N)C#N)C=C(O1)C,698.53,10,"[1, 6, 7, 8]",4,True,CHON,ester
9297,3-[2-[2-(2-cyanoethoxy)ethoxy]ethoxy]propanenitrile,C(COCCOCCOCCC#N)C#N,699.82,10,"[1, 6, 7, 8]",4,True,CHON,ester
9298,"2-[2-hydroxyethyl(methyl)amino]-5-methylcyclohexa-2,5-diene-1,4-dione",CC1=CC(=O)C(=CC1=O)N(C)CCO,701.16,10,"[1, 6, 7, 8]",4,True,CHON,ketone
9299,2-[2-[2-[2-(2-hydroxyethoxy)ethoxy]ethoxy]ethoxy]ethanol,C(COCCOCCOCCOCCO)O,702.44,10,"[1, 6, 8]",3,True,CHO,ester
9300,(3Z)-3-propylidene-2-benzofuran-1-one,CC/C=C\1/C2=CC=CC=C2C(=O)O1,327.15,11,"[1, 6, 8]",3,True,CHO,ester
9301,"2-but-3-enyl-4,6-dimethylpyridine",CC1=CC(=NC(=C1)CCC=C)C,328.15,11,"[1, 6, 7]",3,True,CHN,alkene
9302,1-(7-methoxy-1-benzofuran-2-yl)ethanone,CC(=O)C1=CC2=C(O1)C(=CC=C2)OC,331.15,11,"[1, 6, 8]",3,True,CHO,ester
9303,1-(5-methoxy-1-benzofuran-2-yl)ethanone,CC(=O)C1=CC2=C(O1)C=CC(=C2)OC,331.25,11,"[1, 6, 8]",3,True,CHO,ester
9304,"7-methoxy-3,7-dimethyloctanal",CC(CCCC(C)(C)OC)CC=O,333.15,11,"[1, 6, 8]",3,True,CHO,ester
9305,4-ethyl-7-methyloctan-3-ol,CCC(CCC(C)C)C(CC)O,335.15,11,"[1, 6, 8]",3,True,CHO,alcohol
9306,"10-methyl-1,3,8-triazatricyclo[7.4.0.02,7]trideca-2(7),3,5,8,10,12-hexaen-4-amine",CC1=CC=CN2C1=NC3=C2N=C(C=C3)N,337.85,11,"[1, 6, 7]",3,True,CHN,aromatic
9307,"5-tert-butyl-1,3-benzodioxole",CC(C)(C)C1=CC2=C(C=C1)OCO2,340.65,11,"[1, 6, 8]",3,True,CHO,ester
9308,"2-methoxynaphthalene-1,4-dione",COC1=CC(=O)C2=CC=CC=C2C1=O,341.65,11,"[1, 6, 8]",3,True,CHO,ester
9309,5-butyl-2-(dimethylamino)-4-methyl-1H-pyrimidin-6-one,CCCCC1=C(N=C(NC1=O)N(C)C)C,342.15,11,"[1, 6, 7, 8]",4,True,CHON,aromatic
9310,"7-[(2-methylpropan-2-yl)oxy]bicyclo[2.2.1]hepta-2,5-diene",CC(C)(C)OC1C2C=CC1C=C2,343.15,11,"[1, 6, 8]",3,True,CHO,ester
9311,"3-methylimidazo[4,5-f]quinolin-2-amine",CN1C2=C(C3=C(C=C2)N=CC=C3)N=C1N,344.65,11,"[1, 6, 7]",3,True,CHN,aromatic
9312,2-phenoxyethyl propanoate,CCC(=O)OCCOC1=CC=CC=C1,351.35,11,"[1, 6, 8]",3,True,CHO,ester
9313,"1-methyl-1,2,3,4,4a,5,6,7,8,8a-decahydronaphthalene",CC1CCCC2C1CCCC2,353.65,11,"[1, 6]",2,True,CH,alkane
9314,(2-propan-2-ylphenyl) N-methyl-N-nitrosocarbamate,CC(C)C1=CC=CC=C1OC(=O)N(C)N=O,356.2,11,"[1, 6, 7, 8]",4,True,CHON,ester
9315,1-adamantylmethanamine,C1C2CC3CC1CC(C2)(C3)CN,357.15,11,"[1, 6, 7]",3,True,CHN,amine
9316,"1,1-diethyl-3-phenylurea",CCN(CC)C(=O)NC1=CC=CC=C1,357.65,11,"[1, 6, 7, 8]",4,True,CHON,amide
9317,butan-2-yl cyclohexanecarboxylate,CCC(C)OC(=O)C1CCCCC1,357.9,11,"[1, 6, 8]",3,True,CHO,ester
9318,1-butyl-4-methylbenzene,CCCCC1=CC=C(C=C1)C,362.15,11,"[1, 6]",2,True,CH,aromatic
9319,"2,5-dimethyl-N-prop-2-enylaniline",CC1=CC(=C(C=C1)C)NCC=C,362.15,11,"[1, 6, 7]",3,True,CHN,alkene
9320,"9H-pyrido[2,3-b]indol-2-amine",C1=CC=C2C(=C1)C3=C(N2)N=C(C=C3)N,363.15,11,"[1, 6, 7]",3,True,CHN,aromatic
9321,"(2E)-2,4-diethylhepta-2,6-dienal",CCC(CC=C)/C=C(\CC)/C=O,364.15,11,"[1, 6, 8]",3,True,CHO,alkene
9322,"4-[2-(3,5-dioxopiperazin-1-yl)propyl]piperazine-2,6-dione",CC(CN1CC(=O)NC(=O)C1)N2CC(=O)NC(=O)C2,364.65,11,"[1, 6, 7, 8]",4,True,CHON,amide
9323,3-acetyl-1H-indole-5-carbonitrile,CC(=O)C1=CNC2=C1C=C(C=C2)C#N,365.15,11,"[1, 6, 7, 8]",4,True,CHON,aromatic
9324,"6-methoxy-1,2,3,4-tetrahydronaphthalene",COC1=CC2=C(CCCC2)C=C1,365.65,11,"[1, 6, 8]",3,True,CHO,ester
9325,1-phenylcyclobutane-1-carbonitrile,C1CC(C1)(C#N)C2=CC=CC=C2,366.65,11,"[1, 6, 7]",3,True,CHN,aromatic
9326,4-methoxy-2-(5-methoxy-3-methylpyrazol-1-yl)-6-methylpyrimidine,CC1=CC(=NC(=N1)N2C(=CC(=N2)C)OC)OC,370.65,11,"[1, 6, 7, 8]",4,True,CHON,ester
9327,1-cyclohexylpiperidine,C1CCC(CC1)N2CCCCC2,372.15,11,"[1, 6, 7]",3,True,CHN,amine
9328,"9H-pyrido[3,4-b]indol-3-amine",C1=CC=C2C(=C1)C3=CC(=NC=C3N2)N,375.85,11,"[1, 6, 7]",3,True,CHN,aromatic
9329,"2-(4-ethenylphenyl)-1,3-dioxolane",C=CC1=CC=C(C=C1)C2OCCO2,378.15,11,"[1, 6, 8]",3,True,CHO,ester
9330,methyl 1-methoxybicyclo[2.2.2]oct-5-ene-2-carboxylate,COC(=O)C1CC2CCC1(C=C2)OC,378.15,11,"[1, 6, 8]",3,True,CHO,ester
9331,3-propylbicyclo[2.2.1]hept-5-ene-2-carbaldehyde,CCCC1C2CC(C1C=O)C=C2,380.15,11,"[1, 6, 8]",3,True,CHO,alkene
9332,"(7Z)-3-(dimethylamino)-1-methyl-3,4,5,6-tetrahydro-2H-azonin-9-one",CN1CC(CCC/C=C\C1=O)N(C)C,381.15,11,"[1, 6, 7, 8]",4,True,CHON,amide
9333,"undecane-2,3-dione",CCCCCCCCC(=O)C(=O)C,383.15,11,"[1, 6, 8]",3,True,CHO,ketone
9334,"1,3-dibutylimidazolidin-2-one",CCCCN1CCN(C1=O)CCCC,383.65,11,"[1, 6, 7, 8]",4,True,CHON,amide
9335,3-(4-methoxyphenyl)-2-methylpropanal,CC(CC1=CC=C(C=C1)OC)C=O,383.65,11,"[1, 6, 8]",3,True,CHO,ester
9336,"1-[(E)-but-2-enyl]-3,7-dimethylpurine-2,6-dione",C/C=C/CN1C(=O)C2=C(N=CN2C)N(C1=O)C,385.15,11,"[1, 6, 7, 8]",4,True,CHON,alkene
9337,2-(4-methylphenyl)ethyl acetate,CC1=CC=C(C=C1)CCOC(=O)C,387.9,11,"[1, 6, 8]",3,True,CHO,ester
9338,prop-2-enyl 2-phenoxyacetate,C=CCOC(=O)COC1=CC=CC=C1,389.65,11,"[1, 6, 8]",3,True,CHO,ester
9339,N-carbamoyl-2-phenylbutanamide,CCC(C1=CC=CC=C1)C(=O)NC(=O)N,389.95,11,"[1, 6, 7, 8]",4,True,CHON,aromatic
9340,1-(cyclohexen-1-yl)piperidine,C1CCN(CC1)C2=CCCCC2,390.15,11,"[1, 6, 7]",3,True,CHN,alkene
9341,2-ethoxy-5-[(E)-prop-1-enyl]phenol,CCOC1=C(C=C(C=C1)/C=C/C)O,390.15,11,"[1, 6, 8]",3,True,CHO,ester
9342,(4-formylphenyl) 2-methylprop-2-enoate,CC(=C)C(=O)OC1=CC=C(C=C1)C=O,390.65,11,"[1, 6, 8]",3,True,CHO,ester
9343,2-phenylpropyl acetate,CC(COC(=O)C)C1=CC=CC=C1,391.15,11,"[1, 6, 8]",3,True,CHO,ester
9344,"N-[2-(hydroxyamino)-2-oxoethyl]-3,4-dimethoxybenzamide",COC1=C(C=C(C=C1)C(=O)NCC(=O)NO)OC,394.15,11,"[1, 6, 7, 8]",4,True,CHON,ester
9345,"(2,4-dimethylphenyl)methyl acetate",CC1=CC(=C(C=C1)COC(=O)C)C,394.75,11,"[1, 6, 8]",3,True,CHO,ester
9346,1-benzylpyrrolidin-2-one,C1CC(=O)N(C1)CC2=CC=CC=C2,395.9,11,"[1, 6, 7, 8]",4,True,CHON,amide
9347,"[(E)-3,3-dimethoxyprop-1-enyl]benzene",COC(/C=C/C1=CC=CC=C1)OC,396.45,11,"[1, 6, 8]",3,True,CHO,ester
9348,1-(8-hydroxyquinolin-5-yl)ethanone,CC(=O)C1=C2C=CC=NC2=C(C=C1)O,396.65,11,"[1, 6, 7, 8]",4,True,CHON,ketone
9349,"1,3-benzodioxol-5-ylmethyl propanoate",CCC(=O)OCC1=CC2=C(C=C1)OCO2,397.15,11,"[1, 6, 8]",3,True,CHO,ester
9350,2-tert-butyl-1H-benzimidazole,CC(C)(C)C1=NC2=CC=CC=C2N1,397.15,11,"[1, 6, 7]",3,True,CHN,aromatic
9351,ethyl 2-phenylprop-2-enoate,CCOC(=O)C(=C)C1=CC=CC=C1,397.65,11,"[1, 6, 8]",3,True,CHO,ester
9352,3-cyclohexylcyclopentan-1-one,C1CCC(CC1)C2CCC(=O)C2,399.15,11,"[1, 6, 8]",3,True,CHO,ketone
9353,undec-10-ynoic acid,C#CCCCCCCCCC(=O)O,403.15,11,"[1, 6, 8]",3,True,CHO,alkyne
9354,"N-(3-ethoxypropyl)-2,4-dihydroxy-3,3-dimethylbutanamide",CCOCCCNC(=O)C(C(C)(C)CO)O,404.15,11,"[1, 6, 7, 8]",4,True,CHON,ester
9355,diethyl 3-oxoheptanedioate,CCOC(=O)CCCC(=O)CC(=O)OCC,404.15,11,"[1, 6, 8]",3,True,CHO,ester
9356,"ethyl 3,4-dihydro-2H-1,4-benzoxazine-2-carboxylate",CCOC(=O)C1CNC2=CC=CC=C2O1,405.15,11,"[1, 6, 7, 8]",4,True,CHON,ester
9357,methyl 4-phenylbutanoate,COC(=O)CCCC1=CC=CC=C1,405.15,11,"[1, 6, 8]",3,True,CHO,ester
9358,N-(3-methoxyphenyl)-3-oxobutanamide,CC(=O)CC(=O)NC1=CC(=CC=C1)OC,411.15,11,"[1, 6, 7, 8]",4,True,CHON,ester
9359,"1,6-dimethyl-4-oxo-7,8,9,9a-tetrahydro-6H-pyrido[1,2-a]pyrimidine-3-carboxamide",CC1CCCC2N1C(=O)C(=CN2C)C(=O)N,411.15,11,"[1, 6, 7, 8]",4,True,CHON,amide
9360,ethyl 2-(4-methoxyphenyl)acetate,CCOC(=O)CC1=CC=C(C=C1)OC,412.15,11,"[1, 6, 8]",3,True,CHO,ester
9361,1-methyl-4-phenylpiperazine,CN1CCN(CC1)C2=CC=CC=C2,414.15,11,"[1, 6, 7]",3,True,CHN,aromatic
9362,1-ethenyl-2-phenylimidazole,C=CN1C=CN=C1C2=CC=CC=C2,415.65,11,"[1, 6, 7]",3,True,CHN,alkene
9363,"1-(4-methoxyphenyl)butane-1,3-dione",CC(=O)CC(=O)C1=CC=C(C=C1)OC,417.65,11,"[1, 6, 8]",3,True,CHO,ester
9364,3-tert-butylbenzaldehyde,CC(C)(C)C1=CC=CC(=C1)C=O,418.15,11,"[1, 6, 8]",3,True,CHO,aromatic
9365,ethyl 4-(dimethylaminodiazenyl)benzoate,CCOC(=O)C1=CC=C(C=C1)N=NN(C)C,419.15,11,"[1, 6, 7, 8]",4,True,CHON,ester
9366,3-phenoxypyridine,C1=CC=C(C=C1)OC2=CN=CC=C2,421.15,11,"[1, 6, 7, 8]",4,True,CHON,ester
9367,"7,11-diazatricyclo[7.3.1.02,7]tridecan-6-one",C1CC2C3CC(CNC3)CN2C(=O)C1,423.15,11,"[1, 6, 7, 8]",4,True,CHON,amide
9368,4-phenylmethoxybutan-2-ol,CC(CCOCC1=CC=CC=C1)O,424.65,11,"[1, 6, 8]",3,True,CHO,ester
9369,"4-methyl-3,4-dihydro-2H-naphthalen-1-one",CC1CCC(=O)C2=CC=CC=C12,425.65,11,"[1, 6, 8]",3,True,CHO,aromatic
9370,4-butylbenzonitrile,CCCCC1=CC=C(C=C1)C#N,427.15,11,"[1, 6, 7]",3,True,CHN,aromatic
9371,2-(1-methylindol-3-yl)ethanamine,CN1C=C(C2=CC=CC=C21)CCN,428.15,11,"[1, 6, 7]",3,True,CHN,aromatic
9372,[6-(methylcarbamoyloxymethyl)pyridin-2-yl]methyl N-methylcarbamate,CNC(=O)OCC1=NC(=CC=C1)COC(=O)NC,429.55,11,"[1, 6, 7, 8]",4,True,CHON,ester
9373,"undeca-1,10-diyne",C#CCCCCCCCC#C,431.52,11,"[1, 6]",2,True,CH,alkyne
9374,1-nitroso-4-phenylpiperidine,C1CN(CCC1C2=CC=CC=C2)N=O,432.15,11,"[1, 6, 7, 8]",4,True,CHON,aromatic
9375,"5-[(E)-but-1-enyl]-5-propan-2-yl-1,3-diazinane-2,4,6-trione",CC/C=C/C1(C(=O)NC(=O)NC1=O)C(C)C,432.15,11,"[1, 6, 7, 8]",4,True,CHON,alkene
9376,"2,2,6,6-tetramethylheptane",CC(C)(C)CCCC(C)(C)C,436.15,11,"[1, 6]",2,True,CH,alkane
9377,"2,4,4,6-tetramethylheptane",CC(C)CC(C)(C)CC(C)C,437.15,11,"[1, 6]",2,True,CH,alkane
9378,2-methylnaphthalen-1-amine,CC1=C(C2=CC=CC=C2C=C1)N,438.15,11,"[1, 6, 7]",3,True,CHN,aromatic
9379,5-ethylnon-3-en-2-one,CCCCC(CC)C=CC(=O)C,438.15,11,"[1, 6, 8]",3,True,CHO,alkene
9380,"2,2,5,5-tetramethylheptane",CCC(C)(C)CCC(C)(C)C,439.15,11,"[1, 6]",2,True,CH,alkane
9381,"4-ethyl-2,2,5-trimethylhexane",CCC(CC(C)(C)C)C(C)C,439.15,11,"[1, 6]",2,True,CH,alkane
9382,"1,1,3,3,5-pentamethylcyclohexane",CC1CC(CC(C1)(C)C)(C)C,440.1,11,"[1, 6]",2,True,CH,alkane
9383,"4-ethyl-2,2-dimethylheptane",CCCC(CC)CC(C)(C)C,441.15,11,"[1, 6]",2,True,CH,alkane
9384,"2,2,4,5-tetramethylheptane",CCC(C)C(C)CC(C)(C)C,442.15,11,"[1, 6]",2,True,CH,alkane
9385,"2,2,5,6-tetramethylheptane",CC(C)C(C)CCC(C)(C)C,442.15,11,"[1, 6]",2,True,CH,alkane
9386,"4-ethyl-2,6-dimethylheptane",CCC(CC(C)C)CC(C)C,443.15,11,"[1, 6]",2,True,CH,alkane
9387,"2,2,3,6-tetramethylheptane",CC(C)CCC(C)C(C)(C)C,443.15,11,"[1, 6]",2,True,CH,alkane
9388,"2,2,4,4-tetramethylheptane",CCCC(C)(C)CC(C)(C)C,443.15,11,"[1, 6]",2,True,CH,alkane
9389,"2,5-dimethyl-3-propan-2-ylhexane",CC(C)CC(C(C)C)C(C)C,443.15,11,"[1, 6]",2,True,CH,alkane
9390,"3-ethyl-2,2,5-trimethylhexane",CCC(CC(C)C)C(C)(C)C,443.15,11,"[1, 6]",2,True,CH,alkane
9391,"2,2,4-trimethyl-3-propan-2-ylpentane",CC(C)C(C(C)C)C(C)(C)C,443.15,11,"[1, 6]",2,True,CH,alkane
9392,"3,5,5-trimethyloctane",CCCC(C)(C)CC(C)CC,443.15,11,"[1, 6]",2,True,CH,alkane
9393,"2,2,7-trimethyloctane",CC(C)CCCCC(C)(C)C,443.15,11,"[1, 6]",2,True,CH,alkane
9394,"2,2,5-trimethyloctane",CCCC(C)CCC(C)(C)C,444.15,11,"[1, 6]",2,True,CH,alkane
9395,"2,4,4-trimethyloctane",CCCCC(C)(C)CC(C)C,444.15,11,"[1, 6]",2,True,CH,alkane
9396,"2,8-dimethylnona-1,8-diene",CC(=C)CCCCCC(=C)C,444.4,11,"[1, 6]",2,True,CH,alkene