,Name,SMILES,Tb,C Atom,Atom,Count Unique Atom,Pass Screen,Atom2,Func. Group
772,"3,3-Diethoxy-Propyne",CCOC(C#C)OCC,412.15,7,"[1, 6, 8]",3,True,CHO,ester
773,Acetic Anhydride,CC(=O)OC(=O)C,412.65,4,"[1, 6, 8]",3,True,CHO,ether
774,"Cyclopentanone, 2-Methyl-",CC1CCCC1=O,412.65,6,"[1, 6, 8]",3,True,CHO,ketone
775,"2,3-Dimethyl-3-Pentanol",CCC(C)(C(C)C)O,412.84999999999997,7,"[1, 6, 8]",3,True,CHO,alcohol
776,"Peroxide, Dimethyl",COOC,287.15,2,"[1, 6, 8]",3,True,CHO,ester
777,4-Phenylbutanol,C1=CC=C(C=C1)CCCCO,413.15,10,"[1, 6, 8]",3,True,CHO,aromatic
778,4-Tert-Butylbenzyl Alcohol,CC(C)(C)C1=CC=C(C=C1)CO,413.15,11,"[1, 6, 8]",3,True,CHO,aromatic
779,"2-Buten-1-Ol, 3-Methyl-",CC(=CCO)C,413.15,5,"[1, 6, 8]",3,True,CHO,alkene
780,3-Hexen-2-One,CC/C=C/C(=O)C,413.15,6,"[1, 6, 8]",3,True,CHO,alkene
781,Methyl Tetrahydrofurfuryl Ether,COCC1CCCO1,413.15,6,"[1, 6, 8]",3,True,CHO,ester
782,"1-Butanol, 2-Methyl-, Acetate",CCC(C)COC(=O)C,413.15,7,"[1, 6, 8]",3,True,CHO,ester
783,"2-Cyclopenten-1-One, 3-Methyl-2-Pentyl-",CCCCCC1=C(CCC1=O)C,416.65,11,"[1, 6, 8]",3,True,CHO,alkene
784,Cyclopentanol,C1CCC(C1)O,413.54999999999995,5,"[1, 6, 8]",3,True,CHO,alcohol
785,3-Hydroxy-3-Methyl-2-Butanone,CC(=O)C(C)(C)O,413.65,5,"[1, 6, 8]",3,True,CHO,alcohol
786,2-Ethoxy-1-Propanol,CCOC(C)CO,413.65,5,"[1, 6, 8]",3,True,CHO,ester
787,Di-n-Butyl Ether,CCCCOCCCC,413.95,8,"[1, 6, 8]",3,True,CHO,ester
788,Acrylic Acid,C=CC(=O)O,414.15,3,"[1, 6, 8]",3,True,CHO,alkene
789,4-Penten-1-Ol,C=CCCCO,414.15,5,"[1, 6, 8]",3,True,CHO,alkene
790,N-Propyl Methacrylate,CCCOC(=O)C(=C)C,414.15,7,"[1, 6, 8]",3,True,CHO,ester
791,2-Methyl-3-Hexanol,CCCC(C(C)C)O,414.15,7,"[1, 6, 8]",3,True,CHO,alcohol
792,Propionic Acid,CCC(=O)O,414.25,3,"[1, 6, 8]",3,True,CHO,alcohol
793,"Ethanol, 2-(ethenyloxy)-",C=COCCO,414.75,4,"[1, 6, 8]",3,True,CHO,ester
794,"Acetic Acid, Methoxy-, Ethyl Ester",CCOC(=O)COC,415.15,5,"[1, 6, 8]",3,True,CHO,ester
795,Tetrahydro-Furan-2-Carbaldehyde,C1CC(OC1)C=O,415.15,5,"[1, 6, 8]",3,True,CHO,ester
796,1-Hexyn-3-Ol,CCCC(C#C)O,415.15,6,"[1, 6, 8]",3,True,CHO,alkyne
797,"1,2-Propanediol, 3-(2-Propenyloxy)-",C=CCOCC(CO)O,415.15,6,"[1, 6, 8]",3,True,CHO,ester
798,"3-Acetyl-4,5-Dihydro-2(3h)-Furanone",CC(=O)C1CCOC1=O,415.15,6,"[1, 6, 8]",3,True,CHO,ester
799,Dilactide,CC1C(=O)OC(C(=O)O1)C,415.15,6,"[1, 6, 8]",3,True,CHO,ester
800,Diallyl Carbonate,C=CCOC(=O)OCC=C,415.15,7,"[1, 6, 8]",3,True,CHO,ester
801,"Butanoic Acid, 2-Propenyl Ester",CCCC(=O)OCC=C,415.15,7,"[1, 6, 8]",3,True,CHO,ester
802,3-Ethyl-3-Pentanol,CCC(CC)(CC)O,415.15,7,"[1, 6, 8]",3,True,CHO,alcohol
803,"Butanoic Acid, 3-Methyl-, 1-Methylethyl Ester",CC(C)CC(=O)OC(C)C,415.15,8,"[1, 6, 8]",3,True,CHO,ester
804,Isoamyl Acetate,CC(C)CCOC(=O)C,415.65,7,"[1, 6, 8]",3,True,CHO,ester
805,"Propanoic Acid, 3-Methoxy-, Methyl Ester",COCCC(=O)OC,415.95,5,"[1, 6, 8]",3,True,CHO,ester
806,Acetoin,CC(C(=O)C)O,416.15,4,"[1, 6, 8]",3,True,CHO,alcohol
807,"3,3-Dimethyl-1-Butanol",CC(C)(C)CCO,416.15,6,"[1, 6, 8]",3,True,CHO,alcohol
808,"Hexanal, 3-Methyl-",CCCC(C)CC=O,416.15,7,"[1, 6, 8]",3,True,CHO,aldehyde
809,3-Methyl-3-Hexanol,CCCC(C)(CC)O,416.15,7,"[1, 6, 8]",3,True,CHO,alcohol
810,2-Methyl-2-Hexanol,CCCCC(C)(C)O,416.15,7,"[1, 6, 8]",3,True,CHO,alcohol
811,Ethyl Orthoformate,CCOC(OCC)OCC,416.15,7,"[1, 6, 8]",3,True,CHO,ester
812,"Hexane, 1-(ethenyloxy)-",CCCCCCOC=C,416.15,8,"[1, 6, 8]",3,True,CHO,ester
813,"Hexane, 1-Ethoxy-",CCCCCCOCC,416.15,8,"[1, 6, 8]",3,True,CHO,ester
814,5-Methyl-2-Hexanone,CC(C)CCC(=O)C,417.15,7,"[1, 6, 8]",3,True,CHO,ketone
815,2-Propynoic Acid,C#CC(=O)O,417.15,3,"[1, 6, 8]",3,True,CHO,alkyne
816,"2-Hexanone, 4-Methyl-",CCC(C)CC(=O)C,417.65,7,"[1, 6, 8]",3,True,CHO,ketone
817,"3,4-Hexanedione, 2,5-Dimethyl-",CC(C)C(=O)C(=O)C(C)C,417.65,8,"[1, 6, 8]",3,True,CHO,ketone
818,2-Methoxyethyl Acetate,CC(=O)OCCOC,418.15,5,"[1, 6, 8]",3,True,CHO,ester
819,2-Isopropoxyethanol,CC(C)OCCO,418.15,5,"[1, 6, 8]",3,True,CHO,ester
820,Furan-3-Carboxaldehyde,C1=COC=C1C=O,418.15,5,"[1, 6, 8]",3,True,CHO,aromatic
821,Butyl Acrylate,CCCCOC(=O)C=C,418.15,7,"[1, 6, 8]",3,True,CHO,ester
822,"Ethane, 1,1,1-Triethoxy-",CCOC(C)(OCC)OCC,418.15,8,"[1, 6, 8]",3,True,CHO,ester
823,Hydroxyacetone,CC(=O)CO,418.65,3,"[1, 6, 8]",3,True,CHO,alcohol
824,"Furan, Tetrahydro-2,5-Dimethoxy-",COC1CCC(O1)OC,418.84999999999997,6,"[1, 6, 8]",3,True,CHO,ester
825,"1,3-Benzenediol, Diacetate",CC(=O)OC1=CC(=CC=C1)OC(=O)C,419.15,10,"[1, 6, 8]",3,True,CHO,ester
826,"2h-Pyran-2-Carboxaldehyde, 3,4-Dihydro-",C1CC(OC=C1)C=O,419.15,6,"[1, 6, 8]",3,True,CHO,ester
827,Ethyl Valerate,CCCCC(=O)OCC,419.25,7,"[1, 6, 8]",3,True,CHO,ester
828,(e)-2-Hexenal,CCC/C=C/C=O,419.65,6,"[1, 6, 8]",3,True,CHO,alkene
829,"Cyclopentanone, 2,5-Dimethyl-",CC1CCC(C1=O)C,419.65,7,"[1, 6, 8]",3,True,CHO,ketone
830,"1-Hexen-3-Ol, 3,5-Dimethyl-",CC(C)CC(C)(C=C)O,419.65,8,"[1, 6, 8]",3,True,CHO,alkene
831,N-Butyl Propionate,CCCCOC(=O)CC,419.95,7,"[1, 6, 8]",3,True,CHO,ester
832,2-Ethyl-1-Butanol,CCC(CC)CO,420.15,6,"[1, 6, 8]",3,True,CHO,alcohol
833,3-Heptanone,CCCCC(=O)CC,420.15,7,"[1, 6, 8]",3,True,CHO,ketone
834,"3-Hexanone, 2,2-Dimethyl-",CCCC(=O)C(C)(C)C,420.15,8,"[1, 6, 8]",3,True,CHO,ketone
835,P-Hydroxyacetophenone,CC(=O)C1=CC=C(C=C1)O,420.65,8,"[1, 6, 8]",3,True,CHO,ketone
836,"3-Hexanone, 2,5-Dimethyl-",CC(C)CC(=O)C(C)C,420.65,8,"[1, 6, 8]",3,True,CHO,ketone
837,4-Methyl-2-Pentyl Acetate,CC(C)CC(C)OC(=O)C,420.65,8,"[1, 6, 8]",3,True,CHO,ester
838,"1,1-Diethoxy-But-2-Ene",CCOC(C=CC)OCC,420.65,8,"[1, 6, 8]",3,True,CHO,ester
839,2-Butyn-1-Ol,CC#CCO,421.15,4,"[1, 6, 8]",3,True,CHO,alkyne
840,"Propane, 1,2,3-Trimethoxy-",COCC(COC)OC,421.15,6,"[1, 6, 8]",3,True,CHO,ester
841,3-Methyl-Cyclopentanol,CC1CCC(C1)O,421.65,6,"[1, 6, 8]",3,True,CHO,alcohol
842,Isobutyl Isobutyrate,CC(C)COC(=O)C(C)C,421.75,8,"[1, 6, 8]",3,True,CHO,ester
843,2-Cyclopentylphenol,C1CCC(C1)C2=CC=CC=C2O,422.15,11,"[1, 6, 8]",3,True,CHO,aromatic
844,2-Methyl-1-Pentanol,CCCC(C)CO,422.15,6,"[1, 6, 8]",3,True,CHO,alcohol
845,"2-Hexanone, 3,3-Dimethyl-",CCCC(C)(C)C(=O)C,422.15,8,"[1, 6, 8]",3,True,CHO,ketone
846,N-Amyl Acetate,CCCCCOC(=O)C,422.34999999999997,7,"[1, 6, 8]",3,True,CHO,ester
847,Methyl Hexanoate,CCCCCC(=O)OC,422.65,7,"[1, 6, 8]",3,True,CHO,ester
848,Ethylene Glycol Monopropyl Ether,CCCOCCO,422.95,5,"[1, 6, 8]",3,True,CHO,ester
849,"Mandelic Acid, Ethyl Ester",CCOC(=O)C(C1=CC=CC=C1)O,423.15,10,"[1, 6, 8]",3,True,CHO,ester
850,"2-Butenedioic Acid (2e)-, Dibutyl Ester",CCCCOC(=O)/C=C/C(=O)OCCCC,423.15,12,"[1, 6, 8]",3,True,CHO,ester
851,"Propanoic Acid, 2-Hydroxy-2-Methyl-, Ethyl Ester",CCOC(=O)C(C)(C)O,423.15,6,"[1, 6, 8]",3,True,CHO,ester
852,1-Propoxy-2-Propanol,CCCOCC(C)O,423.15,6,"[1, 6, 8]",3,True,CHO,ester
853,"5-Hexen-2-One, 5-Methyl-",CC(=C)CCC(=O)C,423.15,7,"[1, 6, 8]",3,True,CHO,alkene
854,O-Hydroxypropiophenone,CCC(=O)C1=CC=CC=C1O,423.15,9,"[1, 6, 8]",3,True,CHO,ketone
855,"1,2-Ethanediol, Monobenzoate",C1=CC=C(C=C1)C(=O)OCCO,423.15,9,"[1, 6, 8]",3,True,CHO,ester
856,"2,2,4-Trimethyl-3-Pentanol",CC(C)C(C(C)(C)C)O,423.65,8,"[1, 6, 8]",3,True,CHO,alcohol
857,"Hepta-1,6-Dien-4-Ol",C=CCC(CC=C)O,424.15,7,"[1, 6, 8]",3,True,CHO,alkene
858,3-Heptenal,CCC/C=C/CC=O,424.15,7,"[1, 6, 8]",3,True,CHO,alkene
859,5-Methyl-2-Hexanol,CC(C)CCC(C)O,424.15,7,"[1, 6, 8]",3,True,CHO,alcohol
860,Propylene Glycol Mono-t-Butyl Ether,CC(COC(C)(C)C)O,424.15,7,"[1, 6, 8]",3,True,CHO,ester
861,"Butane, 1-(2-Methylpropoxy)-",CCCCOCC(C)C,424.15,8,"[1, 6, 8]",3,True,CHO,ester
862,2-Heptanone,CCCCCC(=O)C,424.15,7,"[1, 6, 8]",3,True,CHO,ketone
863,4-Methyl-1-Pentanol,CC(C)CCCO,425.04999999999995,6,"[1, 6, 8]",3,True,CHO,alcohol
864,M-Acetylacetophenone,CC(=O)C1=CC(=CC=C1)C(=O)C,425.15,10,"[1, 6, 8]",3,True,CHO,aromatic
865,"3,5-Dimethyl-3-Hexanol",CCC(C)(CC(C)C)O,425.15,8,"[1, 6, 8]",3,True,CHO,alcohol
866,"3-Pentanone, 2,2,4,4-Tetramethyl-",CC(C)(C)C(=O)C(C)(C)C,425.15,9,"[1, 6, 8]",3,True,CHO,ketone
867,"2-Butanone, 4-(4-Methoxyphenyl)-",CC(=O)CCC1=CC=C(C=C1)OC,425.65,11,"[1, 6, 8]",3,True,CHO,ester
868,1-Hepten-4-Ol,CCCC(CC=C)O,425.25,7,"[1, 6, 8]",3,True,CHO,alkene
869,Heptanal,CCCCCCC=O,425.95,7,"[1, 6, 8]",3,True,CHO,aldehyde
870,"2-Butenoic Acid, 3-Methyl-, Ethyl Ester",CCOC(=O)C=C(C)C,426.65,7,"[1, 6, 8]",3,True,CHO,ester
871,Anisole,COC1=CC=CC=C1,426.84999999999997,7,"[1, 6, 8]",3,True,CHO,ester
872,Ethyl Lactate,CCOC(=O)C(C)O,427.15,5,"[1, 6, 8]",3,True,CHO,ester
873,3-Pentyn-1-Ol,CC#CCCO,427.15,5,"[1, 6, 8]",3,True,CHO,alkyne
874,Pent-4-Yn-1-Ol,C#CCCCO,427.15,5,"[1, 6, 8]",3,True,CHO,alkyne
875,"4-Hexen-2-One, 3,4-Dimethyl-",CC=C(C)C(C)C(=O)C,427.15,8,"[1, 6, 8]",3,True,CHO,alkene
876,"4-Heptanone, 3-Methyl-",CCCC(=O)C(C)CC,427.15,8,"[1, 6, 8]",3,True,CHO,ketone
877,Isobutyric Acid,CC(C)C(=O)O,427.54999999999995,4,"[1, 6, 8]",3,True,CHO,alcohol
878,"2-Hexanol, 2,5-Dimethyl-, (s)-",CC(C)CCC(C)(C)O,427.65,8,"[1, 6, 8]",3,True,CHO,alcohol
879,4-Cyclopentylphenol,C1CCC(C1)C2=CC=C(C=C2)O,428.15,11,"[1, 6, 8]",3,True,CHO,aromatic
880,"Propanoic Acid, 2-Oxo-, Ethyl Ester",CCOC(=O)C(=O)C,428.15,5,"[1, 6, 8]",3,True,CHO,ester
881,1-Methylcyclohexanol,CC1(CCCCC1)O,428.15,7,"[1, 6, 8]",3,True,CHO,alcohol
882,"4-Heptanone, 2-Methyl-",CCCC(=O)CC(C)C,428.15,8,"[1, 6, 8]",3,True,CHO,ketone
883,"Isobutyric Acid, Butyl Ester (6ci,7ci,8ci)",CCCCOC(=O)C(C)C,428.15,8,"[1, 6, 8]",3,True,CHO,ester
884,Cyclohexanone,C1CCC(=O)CC1,428.54999999999995,6,"[1, 6, 8]",3,True,CHO,ketone
885,"Formic Acid, Hexyl Ester",CCCCCCOC=O,428.65,7,"[1, 6, 8]",3,True,CHO,ester
886,"Benzene, (ethenyloxy)-",C=COC1=CC=CC=C1,428.65,8,"[1, 6, 8]",3,True,CHO,ester
887,Propyl Isovalerate,CCCOC(=O)CC(C)C,429.04999999999995,8,"[1, 6, 8]",3,True,CHO,ester
888,"2-Butenoic Acid, 2-Methyl-, Ethyl Ester, (e)-",CCOC(=O)/C(=C/C)/C,429.15,7,"[1, 6, 8]",3,True,CHO,ester
889,4-Heptanol,CCCC(CCC)O,429.15,7,"[1, 6, 8]",3,True,CHO,alcohol
890,2-Methyl-2-Heptanol,CCCCCC(C)(C)O,429.15,8,"[1, 6, 8]",3,True,CHO,alcohol
891,"3-Hexanol, 2,2-Dimethyl-",CCCC(C(C)(C)C)O,429.15,8,"[1, 6, 8]",3,True,CHO,alcohol
892,"3-Pentanol, 2,3,4-Trimethyl-",CC(C)C(C)(C(C)C)O,429.65,8,"[1, 6, 8]",3,True,CHO,alcohol
893,"Butanoic Acid, 2-Methylpropyl Ester",CCCC(=O)OCC(C)C,430.04999999999995,8,"[1, 6, 8]",3,True,CHO,ester
894,3-Methoxy-1-Butanol,CC(CCO)OC,430.15,5,"[1, 6, 8]",3,True,CHO,ester
895,"2-Hexen-1-Ol, (z)-",CCC/C=C\CO,430.15,6,"[1, 6, 8]",3,True,CHO,alkene
896,"2-Hexen-1-Ol, (e)-",CCC/C=C/CO,430.15,6,"[1, 6, 8]",3,True,CHO,alkene
897,"2-Cyclopenten-1-One, 2-Methyl-",CC1=CCCC1=O,430.15,6,"[1, 6, 8]",3,True,CHO,alkene
898,"1,3-Benzodioxole-5-Methanol",C1OC2=C(O1)C=C(C=C2)CO,430.15,8,"[1, 6, 8]",3,True,CHO,ester
899,"2-Cyclopenten-1-One, 3-Methyl-",CC1=CC(=O)CC1,430.65,6,"[1, 6, 8]",3,True,CHO,alkene
900,"Cyclopentanol, 1-Ethynyl-",C#CC1(CCCC1)O,430.65,7,"[1, 6, 8]",3,True,CHO,alkyne
901,"3-Hexanol, 2,5-Dimethyl-",CC(C)CC(C(C)C)O,430.65,8,"[1, 6, 8]",3,True,CHO,alcohol
902,1-Hexanol,CCCCCCO,430.75,6,"[1, 6, 8]",3,True,CHO,alcohol
903,Maleic Acid,C(=C\C(=O)O)\C(=O)O,430.95,4,"[1, 6, 8]",3,True,CHO,alkene
904,"Acetic Acid, Ethoxy-, Ethyl Ester",CCOCC(=O)OCC,431.15,6,"[1, 6, 8]",3,True,CHO,ester
905,"Cyclopentanone, 2,2,4-Trimethyl-",CC1CC(=O)C(C1)(C)C,431.15,8,"[1, 6, 8]",3,True,CHO,ketone
906,"3-Heptanone, 2-Methyl-",CCCCC(=O)C(C)C,431.15,8,"[1, 6, 8]",3,True,CHO,ketone
907,"2-Hexanone, 3,4-Dimethyl-",CCC(C)C(C)C(=O)C,431.15,8,"[1, 6, 8]",3,True,CHO,ketone
908,2-Heptanol,CCCCCC(C)O,432.15,7,"[1, 6, 8]",3,True,CHO,alcohol
909,"4-Methyl-Hepta-1,6-Dien-4-Ol",CC(CC=C)(CC=C)O,431.54999999999995,8,"[1, 6, 8]",3,True,CHO,alkene
910,"Ethanol, 2-(2-Propenyloxy)-",C=CCOCCO,431.65,5,"[1, 6, 8]",3,True,CHO,ester
911,"Ethanone, 1-Cyclopentyl-",CC(=O)C1CCCC1,431.65,7,"[1, 6, 8]",3,True,CHO,ketone
912,"4-Hexen-1-Ol, (e)-",C/C=C/CCCO,432.15,6,"[1, 6, 8]",3,True,CHO,alkene
913,"2-Penten-1-Ol, 4-Methyl-",CC(C)/C=C/CO,432.15,6,"[1, 6, 8]",3,True,CHO,alkene
914,Cyclobutanecarboxylic Acid Ethyl Ester,CCOC(=O)C1CCC1,432.15,7,"[1, 6, 8]",3,True,CHO,ester
915,Cyclohexanecarboxaldehyde,C1CCC(CC1)C=O,432.45,7,"[1, 6, 8]",3,True,CHO,aldehyde
916,"2-Butanone, 1-Hydroxy-",CCC(=O)CO,433.15,4,"[1, 6, 8]",3,True,CHO,alcohol
917,"Acetic Acid, Hydroxy-, Ethyl Ester",CCOC(=O)CO,433.15,4,"[1, 6, 8]",3,True,CHO,ester
918,"2,4-Hexanedione",CCC(=O)CC(=O)C,433.15,6,"[1, 6, 8]",3,True,CHO,ketone
919,"Ethanol, 2-(2-Methylpropoxy)-",CC(C)COCCO,433.15,6,"[1, 6, 8]",3,True,CHO,ester
920,"3-Furancarboxylic Acid, Methyl Ester",COC(=O)C1=COC=C1,433.15,6,"[1, 6, 8]",3,True,CHO,ester
921,4-Methoxy-4-Methyl-2-Pentanone,CC(=O)CC(C)(C)OC,433.15,7,"[1, 6, 8]",3,True,CHO,ester
922,2-Propyl-Pentanal,CCCC(CCC)C=O,433.15,8,"[1, 6, 8]",3,True,CHO,aldehyde
923,3-Ethyl-3-Hexanol,CCCC(CC)(CC)O,433.15,8,"[1, 6, 8]",3,True,CHO,alcohol
924,"3-Pentanol, 3-Ethyl-2-Methyl-",CCC(CC)(C(C)C)O,433.15,8,"[1, 6, 8]",3,True,CHO,alcohol
925,"2-Hexanol, 2,3-Dimethyl-",CCCC(C)C(C)(C)O,433.15,8,"[1, 6, 8]",3,True,CHO,alcohol
926,O-Isopropylbenzoic Acid,CC(C)C1=CC=CC=C1C(=O)O,433.65,10,"[1, 6, 8]",3,True,CHO,aromatic
927,"1-Butanol, 3-Methyl-, Propanoate",CCC(=O)OCCC(C)C,433.34999999999997,8,"[1, 6, 8]",3,True,CHO,ester
928,"Cyclopentanone, 2,4,4-Trimethyl-",CC1CC(CC1=O)(C)C,433.65,8,"[1, 6, 8]",3,True,CHO,ketone
929,Cyclohexanol,C1CCC(CC1)O,433.95,6,"[1, 6, 8]",3,True,CHO,alcohol
930,Diallyl Diglycol Carbonate,C=CCOC(=O)OCCOCCOC(=O)OCC=C,434.15,12,"[1, 6, 8]",3,True,CHO,ester
931,"Furan, 2,5-Dihydro-2,5-Dimethoxy-",COC1C=CC(O1)OC,434.15,6,"[1, 6, 8]",3,True,CHO,ester
932,"Methanone, Dicyclopropyl-",C1CC1C(=O)C2CC2,434.15,7,"[1, 6, 8]",3,True,CHO,ketone
933,"4-Heptanol, 4-Methyl-",CCCC(C)(CCC)O,434.15,8,"[1, 6, 8]",3,True,CHO,alcohol
934,Fufural,C1=COC(=C1)C=O,434.84999999999997,5,"[1, 6, 8]",3,True,CHO,aromatic
935,Beta-Propiolactone,C1COC1=O,435.15,3,"[1, 6, 8]",3,True,CHO,ester
936,4-Oxo-Butyric Acid Ethyl Ester,CCOC(=O)CCC=O,435.15,6,"[1, 6, 8]",3,True,CHO,ester
937,2-Methoxyethylether,COCCOCCOC,435.15,6,"[1, 6, 8]",3,True,CHO,ester
938,2-Methylcyclohexanone,CC1CCCCC1=O,435.65,7,"[1, 6, 8]",3,True,CHO,ketone
939,"2-Furanmethanol, .alpha.-Methyl-",CC(C1=CC=CO1)O,435.65,6,"[1, 6, 8]",3,True,CHO,aromatic
940,Methacrylic Acid,CC(=C)C(=O)O,436.15,4,"[1, 6, 8]",3,True,CHO,alkene
941,3-Hexyn-1-Ol,CCC#CCCO,436.15,6,"[1, 6, 8]",3,True,CHO,alkyne
942,Cyclopentanemethanol,C1CCC(C1)CO,436.15,6,"[1, 6, 8]",3,True,CHO,alcohol
943,But-2-Ynoic Acid Ethyl Ester,CCOC(=O)C#CC,436.15,6,"[1, 6, 8]",3,True,CHO,ester
944,"Formic Acid, Cyclohexyl Ester",C1CCC(CC1)OC=O,436.15,7,"[1, 6, 8]",3,True,CHO,ester
945,3-Methylcyclohexanol,CC1CCCC(C1)O,436.15,7,"[1, 6, 8]",3,True,CHO,alcohol
946,2-Ethylhexanal,CCCCC(CC)C=O,436.15,8,"[1, 6, 8]",3,True,CHO,aldehyde
947,4-Octanone,CCCCC(=O)CCC,436.15,8,"[1, 6, 8]",3,True,CHO,ketone
948,"1-Pentanol, 2-Methyl-, Acetate",CCCC(C)COC(=O)C,436.15,8,"[1, 6, 8]",3,True,CHO,ester
949,"Pentanoic Acid, 4-Methyl-, Ethyl Ester",CCOC(=O)CCC(C)C,436.15,8,"[1, 6, 8]",3,True,CHO,ester
950,Benzoylformic Acid,C1=CC=C(C=C1)C(=O)C(=O)O,436.15,8,"[1, 6, 8]",3,True,CHO,carboxylic_acid
951,Methyl Oxalate,COC(=O)C(=O)OC,436.65,4,"[1, 6, 8]",3,True,CHO,ester
952,Butyric Acid,CCCC(=O)O,436.65,4,"[1, 6, 8]",3,True,CHO,alcohol
953,Coniferyl Alcohol,COC1=C(C=CC(=C1)/C=C/CO)O,437.15,10,"[1, 6, 8]",3,True,CHO,ester
954,2-Cyclohexen-1-Ol,C1CC=CC(C1)O,437.15,6,"[1, 6, 8]",3,True,CHO,alkene
955,3-Cyclohexen-1-Ol,C1CC(CC=C1)O,437.15,6,"[1, 6, 8]",3,True,CHO,alkene
956,"2-Heptanone, 3-Methyl-",CCCCC(C)C(=O)C,437.15,8,"[1, 6, 8]",3,True,CHO,ketone
957,Ethyl Isoamyl Ketone,CCC(=O)CCC(C)C,437.15,8,"[1, 6, 8]",3,True,CHO,ketone
958,"4-Heptanol, 2-Methyl-",CCCC(CC(C)C)O,437.15,8,"[1, 6, 8]",3,True,CHO,alcohol
959,2-Methylcyclohexanol,CC1CCCCC1O,437.65,7,"[1, 6, 8]",3,True,CHO,alcohol
960,Glycidyl N-Butyl Ether,CCCCOCC1CO1,438.15,7,"[1, 6, 8]",3,True,CHO,ester
961,1-Isobutoxy-2-Propanol,CC(C)COCC(C)O,438.15,7,"[1, 6, 8]",3,True,CHO,ester
962,"2-Hexen-1-Ol, Acetate, (2e)-",CCCC=CCOC(=O)C,438.65,8,"[1, 6, 8]",3,True,CHO,ester
963,"2-Hexanol, 3,4-Dimethyl-",CCC(C)C(C)C(C)O,438.65,8,"[1, 6, 8]",3,True,CHO,alcohol
964,"Propane, 1,1'-[methylenebis(oxy)]bis[2-Methyl-",CC(C)COCOCC(C)C,438.65,9,"[1, 6, 8]",3,True,CHO,ester
965,2-Heptenal,CCCC/C=C/C=O,439.15,7,"[1, 6, 8]",3,True,CHO,alkene
966,1-Ethylcyclohexanol,CCC1(CCCCC1)O,439.15,8,"[1, 6, 8]",3,True,CHO,alcohol
967,"Heptane, 1-Ethoxy-",CCCCCCCOCC,439.15,9,"[1, 6, 8]",3,True,CHO,ester
968,3-Methyl-2-Heptanol,CCCCC(C)C(C)O,439.25,8,"[1, 6, 8]",3,True,CHO,alcohol
969,"4h-Pyran-4-One, Tetrahydro-",C1COCCC1=O,439.65,5,"[1, 6, 8]",3,True,CHO,ester
970,"4-Hepten-3-One, 5-Methyl-",CC/C(=C/C(=O)CC)/C,439.65,8,"[1, 6, 8]",3,True,CHO,alkene
971,"3-Hexenoic Acid, Ethyl Ester",CC/C=C/CC(=O)OCC,439.65,8,"[1, 6, 8]",3,True,CHO,ester
972,"Propane, 2,2',2''-[methylidynetris(oxy)]tris-",CC(C)OC(OC(C)C)OC(C)C,440.15,10,"[1, 6, 8]",3,True,CHO,ester
973,Ethyl Benzoylacetate,CCOC(=O)CC(=O)C1=CC=CC=C1,440.15,11,"[1, 6, 8]",3,True,CHO,ester
974,2-Hydroxy-Propionic Acid Isopropyl Ester,CC(C)OC(=O)C(C)O,440.15,6,"[1, 6, 8]",3,True,CHO,ester
975,"Ethanol, 2,2-Diethoxy-",CCOC(CO)OCC,440.15,6,"[1, 6, 8]",3,True,CHO,ester
976,"2-Heptanone, 6-Methyl-",CC(C)CCCC(=O)C,440.15,8,"[1, 6, 8]",3,True,CHO,ketone
977,Ethyl Hexanoate,CCCCCC(=O)OCC,440.15,8,"[1, 6, 8]",3,True,CHO,ester
978,Oxiranemethanol,C1C(O1)CO,440.15,3,"[1, 6, 8]",3,True,CHO,ester
979,"2-Penten-1-Ol, 2-Methyl-",CC/C=C(\C)/CO,440.65,6,"[1, 6, 8]",3,True,CHO,alkene
980,3-Octanone,CCCCCC(=O)CC,440.65,8,"[1, 6, 8]",3,True,CHO,ketone
981,"Pentanoic Acid, Propyl Ester",CCCCC(=O)OCCC,440.65,8,"[1, 6, 8]",3,True,CHO,ester
982,4-Hydroxy-4-Methyl-2-Pentanone,CC(=O)CC(C)(C)O,441.04999999999995,6,"[1, 6, 8]",3,True,CHO,alcohol
983,"Carbonic Acid, Dipropyl Ester",CCCOC(=O)OCCC,441.15,7,"[1, 6, 8]",3,True,CHO,ester
984,"4,5-Octanedione",CCCC(=O)C(=O)CCC,441.15,8,"[1, 6, 8]",3,True,CHO,ketone
985,2-Butoxyethanol,CCCCOCCO,441.54999999999995,6,"[1, 6, 8]",3,True,CHO,ester
986,Isobutyl Isovalerate,CC(C)CC(=O)OCC(C)C,441.65,9,"[1, 6, 8]",3,True,CHO,ester
987,"Propanoic Acid, 2-Methyl-, 3-Methylbutyl Ester",CC(C)CCOC(=O)C(C)C,441.65,9,"[1, 6, 8]",3,True,CHO,ester
988,Amyl Propionate,CCCCCOC(=O)CC,441.75,8,"[1, 6, 8]",3,True,CHO,ester
989,3-Butenoic Acid,C=CCC(=O)O,442.15,4,"[1, 6, 8]",3,True,CHO,alkene
990,"2-Propanol, 1,3-Dimethoxy-",COCC(COC)O,442.15,5,"[1, 6, 8]",3,True,CHO,ester
991,"1,1-Ethanediol, Diacetate",CC(OC(=O)C)OC(=O)C,442.15,6,"[1, 6, 8]",3,True,CHO,ester
992,"2,6-Dimethyl-4-Heptanone",CC(C)CC(=O)CC(C)C,442.54999999999995,9,"[1, 6, 8]",3,True,CHO,ketone
993,3-Methylcyclohexanone,CC1CCCC(=O)C1,442.65,7,"[1, 6, 8]",3,True,CHO,ketone
994,Ethoxybenzene,CCOC1=CC=CC=C1,442.95,8,"[1, 6, 8]",3,True,CHO,ester
995,"1,2,3-Trihydroxybutane",CC(C(CO)O)O,443.15,4,"[1, 6, 8]",3,True,CHO,alcohol
996,Propionic Anhydride,CCC(=O)OC(=O)CC,443.15,6,"[1, 6, 8]",3,True,CHO,ether
997,"1,2,6-Hexanetriol",C(CCO)CC(CO)O,443.15,6,"[1, 6, 8]",3,True,CHO,alcohol
998,2-Cyclohexene-1-One,C1CC=CC(=O)C1,443.15,6,"[1, 6, 8]",3,True,CHO,alkene
999,Cyclohex-3-Enone,C1CC(=O)CC=C1,443.15,6,"[1, 6, 8]",3,True,CHO,alkene
1000,4-Methylcyclohexanone,CC1CCC(=O)CC1,443.15,7,"[1, 6, 8]",3,True,CHO,ketone
1001,"1-Hexanol, 5-Methyl-",CC(C)CCCCO,443.15,7,"[1, 6, 8]",3,True,CHO,alcohol
1002,Benzyl Methyl Ether,COCC1=CC=CC=C1,443.15,8,"[1, 6, 8]",3,True,CHO,ester
1003,"2-Heptanol, 5-Methyl-",CCC(C)CCC(C)O,443.15,8,"[1, 6, 8]",3,True,CHO,alcohol
1004,M-Methoxybenzoic Acid,COC1=CC=CC(=C1)C(=O)O,443.15,8,"[1, 6, 8]",3,True,CHO,carboxylic_acid
1005,"Carbonic Acid, Dibutyl Ester",CCCCOC(=O)OCCCC,443.15,9,"[1, 6, 8]",3,True,CHO,ester
1006,"2,2,3-Trimethyl-Hexan-3-Ol",CCCC(C)(C(C)(C)C)O,443.15,9,"[1, 6, 8]",3,True,CHO,alcohol
1007,"Butanoic Acid, 3-Methyl-2-Oxo-",CC(C)C(=O)C(=O)O,443.65,5,"[1, 6, 8]",3,True,CHO,carboxylic_acid
1008,"Undecanal, 2-Methyl-",CCCCCCCCCC(C)C=O,444.15,12,"[1, 6, 8]",3,True,CHO,aldehyde
1009,2-Hydroxymethylfuran,C1=COC(=C1)CO,444.15,5,"[1, 6, 8]",3,True,CHO,aromatic
1010,"2-Propanone, 1-(acetyloxy)-",CC(=O)COC(=O)C,444.15,5,"[1, 6, 8]",3,True,CHO,ester
1011,2-Methylanisole,CC1=CC=CC=C1OC,444.15,8,"[1, 6, 8]",3,True,CHO,ester