,Name,SMILES,Tb,C Atom,Atom,Count Unique Atom,Pass Screen,Atom2,Func. Group
5066,butan-2-yl prop-2-enoate,CCC(C)OC(=O)C=C,404.9,7,"[1, 6, 8]",3,True,CHO,ester
5067,2-methylidenehexanal,CCCCC(=C)C=O,404.98,7,"[1, 6, 8]",3,True,CHO,alkene
5068,3-ethylpent-1-en-3-ol,CCC(CC)(C=C)O,405.15,7,"[1, 6, 8]",3,True,CHO,alkene
5069,"2,4-dimethylpent-4-en-2-ol",CC(=C)CC(C)(C)O,405.15,7,"[1, 6, 8]",3,True,CHO,alkene
5070,5-methylhexan-2-amine,CC(C)CCC(C)N,405.15,7,"[1, 6, 7]",3,True,CHN,amine
5071,1-propylpyrrolidine,CCCN1CCCC1,405.65,7,"[1, 6, 7]",3,True,CHN,amine
5072,N-ethyl-N-(oxiran-2-ylmethyl)ethanamine,CCN(CC)CC1CO1,405.89,7,"[1, 6, 7, 8]",4,True,CHON,ester
5073,ethyl 2-methylbutanoate,CCC(C)C(=O)OCC,406.25,7,"[1, 6, 8]",3,True,CHO,ester
5074,2-methylbut-3-yn-2-yl acetate,CC(=O)OC(C)(C)C#C,406.4,7,"[1, 6, 8]",3,True,CHO,ester
5075,methyl (E)-hex-2-enoate,CCC/C=C/C(=O)OC,406.65,7,"[1, 6, 8]",3,True,CHO,ester
5076,methyl (Z)-hex-2-enoate,CCC/C=C\C(=O)OC,406.65,7,"[1, 6, 8]",3,True,CHO,ester
5077,"2-oxabicyclo[3.2.1]octa-3,6-diene",C1C2C=CC1OC=C2,407.05,7,"[1, 6, 8]",3,True,CHO,ester
5078,"4-oxabicyclo[5.1.0]octa-2,5-diene",C1C2C1C=COC=C2,407.05,7,"[1, 6, 8]",3,True,CHO,ester
5079,ethenyl pentanoate,CCCCC(=O)OC=C,407.15,7,"[1, 6, 8]",3,True,CHO,ester
5080,N-propylbutan-1-amine,CCCCNCCC,407.15,7,"[1, 6, 7]",3,True,CHN,amine
5081,"2,5-dimethylpiperidine",CC1CCC(NC1)C,407.15,7,"[1, 6, 7]",3,True,CHN,amine
5082,"3,4-dimethylpentanal",CC(C)C(C)CC=O,407.54,7,"[1, 6, 8]",3,True,CHO,aldehyde
5083,2-ethyl-3-methylbutanal,CCC(C=O)C(C)C,407.54,7,"[1, 6, 8]",3,True,CHO,aldehyde
5084,2-oxabicyclo[3.2.1]oct-3-ene,C1CC2CC1C=CO2,407.89,7,"[1, 6, 8]",3,True,CHO,ester
5085,ethyl pent-4-ynoate,CCOC(=O)CCC#C,408.1,7,"[1, 6, 8]",3,True,CHO,ester
5086,3-methoxybutyl acetate,CC(CCOC(=O)C)OC,408.15,7,"[1, 6, 8]",3,True,CHO,ester
5087,2-propan-2-yloxyfuran,CC(C)OC1=CC=CO1,408.65,7,"[1, 6, 8]",3,True,CHO,ester
5088,8-oxabicyclo[5.1.0]octane,C1CCC2C(O2)CC1,408.73,7,"[1, 6, 8]",3,True,CHO,ester
5089,N-ethyl-3-methylbutan-2-amine,CCNC(C)C(C)C,409.05,7,"[1, 6, 7]",3,True,CHN,amine
5090,N-ethylpentan-1-amine,CCCCCNCC,409.15,7,"[1, 6, 7]",3,True,CHN,amine
5091,2-propyloxolane,CCCC1CCCO1,409.15,7,"[1, 6, 8]",3,True,CHO,ester
5092,cyclopentyl acetate,CC(=O)OC1CCCC1,409.4,7,"[1, 6, 8]",3,True,CHO,ester
5093,"2-methoxycyclohexa-1,3-diene",COC1=CCCC=C1,409.7,7,"[1, 6, 8]",3,True,CHO,ester
5094,5-methylhex-1-en-3-one,CC(C)CC(=O)C=C,409.87,7,"[1, 6, 8]",3,True,CHO,alkene
5095,3-methylhex-1-yn-3-ol,CCCC(C)(C#C)O,410.15,7,"[1, 6, 8]",3,True,CHO,alkyne
5096,"1,1-dimethoxy-3-methylbut-2-ene",CC(=CC(OC)OC)C,410.15,7,"[1, 6, 8]",3,True,CHO,ester
5097,3-methylhex-5-en-2-one,CC(CC=C)C(=O)C,410.15,7,"[1, 6, 8]",3,True,CHO,alkene
5098,hept-1-en-3-one,CCCCC(=O)C=C,410.31,7,"[1, 6, 8]",3,True,CHO,alkene
5099,"4,4-dimethylpentan-2-ol",CC(CC(C)(C)C)O,410.4,7,"[1, 6, 8]",3,True,CHO,alcohol
5100,1-methoxycyclohexene,COC1=CCCCC1,410.54,7,"[1, 6, 8]",3,True,CHO,ester
5101,4-methylhex-5-en-2-one,CC(CC(=O)C)C=C,410.65,7,"[1, 6, 8]",3,True,CHO,alkene
5102,methyl 3-methylpentanoate,CCC(C)CC(=O)OC,410.8,7,"[1, 6, 8]",3,True,CHO,ester
5103,ethyl 2-methylidenebutanoate,CCC(=C)C(=O)OCC,411.15,7,"[1, 6, 8]",3,True,CHO,ester
5104,ethyl 2-methylidenebut-3-enoate,CCOC(=O)C(=C)C=C,411.22,7,"[1, 6, 8]",3,True,CHO,ester
5105,"2-tert-butyl-1,2-oxazolidine",CC(C)(C)N1CCCO1,411.6,7,"[1, 6, 7, 8]",4,True,CHON,ester
5106,"N'-tert-butyl-N,N-dimethylmethanimidamide",CC(C)(C)N=CN(C)C,411.65,7,"[1, 6, 7]",3,True,CHN,amine
5107,"1,5-diazabicyclo[3.3.1]nonane",C1CN2CCCN(C1)C2,411.73,7,"[1, 6, 7]",3,True,CHN,amine
5108,"3,3-diethyloxetane",CCC1(COC1)CC,412.15,7,"[1, 6, 8]",3,True,CHO,ester
5109,"2-ethyl-4-methyl-1,3-dioxane",CCC1OCCC(O1)C,412.15,7,"[1, 6, 8]",3,True,CHO,ester
5110,3-methylhexan-2-amine,CCCC(C)C(C)N,412.15,7,"[1, 6, 7]",3,True,CHN,amine
5111,(Z)-hept-4-enal,CC/C=C\CCC=O,412.58,7,"[1, 6, 8]",3,True,CHO,alkene
5112,2-propan-2-ylideneoxolane,CC(=C1CCCO1)C,413.18,7,"[1, 6, 8]",3,True,CHO,ester
5113,2-ethylpentanal,CCCC(CC)C=O,413.65,7,"[1, 6, 8]",3,True,CHO,aldehyde
5114,2-methylprop-2-enyl propanoate,CCC(=O)OCC(=C)C,414.15,7,"[1, 6, 8]",3,True,CHO,ester
5115,"4,4-dimethylpent-2-ynal",CC(C)(C)C#CC=O,414.19,7,"[1, 6, 8]",3,True,CHO,alkyne
5116,"2,3-dimethylpentanal",CCC(C)C(C)C=O,414.65,7,"[1, 6, 8]",3,True,CHO,aldehyde
5117,ethyl pent-4-enoate,CCOC(=O)CCC=C,414.66,7,"[1, 6, 8]",3,True,CHO,ester
5118,"1,2-dimethoxycyclopentane",COC1CCCC1OC,415.21,7,"[1, 6, 8]",3,True,CHO,ester
5119,4-prop-2-enylmorpholine,C=CCN1CCOCC1,415.78,7,"[1, 6, 7, 8]",4,True,CHON,ester
5120,1-methylcyclohexan-1-amine,CC1(CCCCC1)N,416.46703,7,"[1, 6, 7]",3,True,CHN,amine
5121,3-methylhexan-2-one,CCCC(C)C(=O)C,416.65,7,"[1, 6, 8]",3,True,CHO,ketone
5122,3-methylbut-3-enyl acetate,CC(=C)CCOC(=O)C,416.65,7,"[1, 6, 8]",3,True,CHO,ester
5123,N-(cyclopropylmethyl)propan-1-amine,CCCNCC1CC1,416.67,7,"[1, 6, 7]",3,True,CHN,amine
5124,methyl 2-methylpentanoate,CCCC(C)C(=O)OC,417.54,7,"[1, 6, 8]",3,True,CHO,ester
5125,methyl 4-methylpentanoate,CC(C)CCC(=O)OC,417.54,7,"[1, 6, 8]",3,True,CHO,ester
5126,"3,4-dimethylpent-3-en-2-one",CC(=C(C)C(=O)C)C,417.55,7,"[1, 6, 8]",3,True,CHO,alkene
5127,"3-(dimethylamino)-2,2-dimethylpropanal",CC(C)(CN(C)C)C=O,417.63,7,"[1, 6, 7, 8]",4,True,CHON,aldehyde
5128,(E)-hept-5-en-2-one,C/C=C/CCC(=O)C,417.79,7,"[1, 6, 8]",3,True,CHO,alkene
5129,(E)-hept-4-en-2-one,CC/C=C/CC(=O)C,417.79,7,"[1, 6, 8]",3,True,CHO,alkene
5130,(Z)-hept-3-en-2-one,CCC/C=C\C(=O)C,417.79,7,"[1, 6, 8]",3,True,CHO,alkene
5131,"2-aminocyclohepta-2,4,6-trien-1-one",C1=CC=C(C(=O)C=C1)N,417.9,7,"[1, 6, 7, 8]",4,True,CHON,aromatic
5132,"1,2-dimethylpiperidine",CC1CCCCN1C,418.15,7,"[1, 6, 7]",3,True,CHN,amine
5133,"1-methoxycyclohexa-1,3-diene",COC1=CC=CCC1,418.15,7,"[1, 6, 8]",3,True,CHO,ester
5134,"4-methyl-2-propyl-1,3-dioxolane",CCCC1OCC(O1)C,418.15,7,"[1, 6, 8]",3,True,CHO,ester
5135,1-(2-methoxyethoxy)butane,CCCCOCCOC,418.15,7,"[1, 6, 8]",3,True,CHO,ester
5136,1-[bis(2-hydroxyethyl)amino]propan-2-ol,CC(CN(CCO)CCO)O,418.15,7,"[1, 6, 7, 8]",4,True,CHON,alcohol
5137,hept-6-en-2-one,CC(=O)CCCC=C,418.15,7,"[1, 6, 8]",3,True,CHO,alkene
5138,"4,4-dimethylpiperidine",CC1(CCNCC1)C,418.65,7,"[1, 6, 7]",3,True,CHN,amine
5139,2-cyclopropylbut-3-yn-2-ol,CC(C#C)(C1CC1)O,418.65,7,"[1, 6, 8]",3,True,CHO,alkyne
5140,1-propylpyrrole,CCCN1C=CC=C1,418.65,7,"[1, 6, 7]",3,True,CHN,aromatic
5141,prop-2-enyl (E)-but-2-enoate,C/C=C/C(=O)OCC=C,418.82,7,"[1, 6, 8]",3,True,CHO,ester
5142,[(E)-but-2-enyl] prop-2-enoate,C/C=C/COC(=O)C=C,418.82,7,"[1, 6, 8]",3,True,CHO,ester
5143,"2,2-dimethyl-4,7-dihydro-1,3-dioxepine",CC1(OCC=CCO1)C,418.9,7,"[1, 6, 8]",3,True,CHO,ester
5144,propan-2-yl (E)-but-2-enoate,C/C=C/C(=O)OC(C)C,418.9,7,"[1, 6, 8]",3,True,CHO,ester
5145,"1,1-diethoxy-2-methoxyethane",CCOC(COC)OCC,419.15,7,"[1, 6, 8]",3,True,CHO,ester
5146,2-methylhex-3-yn-2-ol,CCC#CC(C)(C)O,419.15,7,"[1, 6, 8]",3,True,CHO,alkyne
5147,3-ethylpent-1-yn-3-amine,CCC(CC)(C#C)N,419.18,7,"[1, 6, 7]",3,True,CHN,alkyne
5148,oxocane,C1CCCOCCC1,419.47,7,"[1, 6, 8]",3,True,CHO,ester
5149,"2-ethenyl-4-methyl-1,3-dioxane",CC1CCOC(O1)C=C,419.65,7,"[1, 6, 8]",3,True,CHO,ester
5150,ethyl 2-methylcyclopropane-1-carboxylate,CCOC(=O)C1CC1C,420.05,7,"[1, 6, 8]",3,True,CHO,ester
5151,"1,1-dimethoxycyclopentane",COC1(CCCC1)OC,420.12,7,"[1, 6, 8]",3,True,CHO,ester
5152,dipropan-2-yl carbonate,CC(C)OC(=O)OC(C)C,420.15,7,"[1, 6, 8]",3,True,CHO,ester
5153,"2-methyl-1-N-propan-2-ylpropane-1,2-diamine",CC(C)NCC(C)(C)N,420.45,7,"[1, 6, 7]",3,True,CHN,amine
5154,ethyl (E)-pent-3-enoate,CCOC(=O)C/C=C/C,420.65,7,"[1, 6, 8]",3,True,CHO,ester
5155,"2,3,5,6,7,8-hexahydro-1H-pyrrolizine",C1CC2CCCN2C1,421.15,7,"[1, 6, 7]",3,True,CHN,amine
5156,"heptane-3,4-dione",CCCC(=O)C(=O)CC,421.15,7,"[1, 6, 8]",3,True,CHO,ketone
5157,"1-methoxycyclohexa-1,4-diene",COC1=CCC=CC1,421.65,7,"[1, 6, 8]",3,True,CHO,ester
5158,2-methyl-1-oxa-2-azaspiro[2.5]octane,CN1C2(O1)CCCCC2,421.81,7,"[1, 6, 7, 8]",4,True,CHON,ester
5159,methyl (E)-2-methylpent-2-enoate,CC/C=C(\C)/C(=O)OC,422.02,7,"[1, 6, 8]",3,True,CHO,ester
5160,methyl 3-methylpent-3-enoate,CC=C(C)CC(=O)OC,422.02,7,"[1, 6, 8]",3,True,CHO,ester
5161,[(E)-2-methylbut-2-enyl] acetate,C/C=C(\C)/COC(=O)C,422.02,7,"[1, 6, 8]",3,True,CHO,ester
5162,methyl (E)-3-methylpent-2-enoate,CC/C(=C/C(=O)OC)/C,422.02,7,"[1, 6, 8]",3,True,CHO,ester
5163,propyl (E)-but-2-enoate,CCCOC(=O)/C=C/C,422.14,7,"[1, 6, 8]",3,True,CHO,ester
5164,methyl (E)-hex-3-enoate,CC/C=C/CC(=O)OC,422.14,7,"[1, 6, 8]",3,True,CHO,ester
5165,methyl (Z)-hex-3-enoate,CC/C=C\CC(=O)OC,422.14,7,"[1, 6, 8]",3,True,CHO,ester
5166,ethyl (E)-pent-2-enoate,CC/C=C/C(=O)OCC,422.14,7,"[1, 6, 8]",3,True,CHO,ester
5167,2-(ethoxymethyl)furan,CCOCC1=CC=CO1,422.15,7,"[1, 6, 8]",3,True,CHO,ester
5168,4-methylcyclohexan-1-amine,CC1CCC(CC1)N,422.15,7,"[1, 6, 7]",3,True,CHN,amine
5169,2-methylcyclopentane-1-carbaldehyde,CC1CCCC1C=O,422.15,7,"[1, 6, 8]",3,True,CHO,aldehyde
5170,4-hydroxybenzonitrile,C1=CC(=CC=C1C#N)O,422.15,7,"[1, 6, 7, 8]",4,True,CHON,aromatic
5171,2-methylhex-4-yn-3-one,CC#CC(=O)C(C)C,422.19,7,"[1, 6, 8]",3,True,CHO,alkyne
5172,hept-3-yn-2-one,CCCC#CC(=O)C,422.63,7,"[1, 6, 8]",3,True,CHO,alkyne
5173,hept-2-yn-4-one,CCCC(=O)C#CC,422.63,7,"[1, 6, 8]",3,True,CHO,alkyne
5174,pent-4-enyl acetate,CC(=O)OCCCC=C,422.65,7,"[1, 6, 8]",3,True,CHO,ester
5175,"N,N,2,2-tetramethylpropanamide",CC(C)(C)C(=O)N(C)C,422.84,7,"[1, 6, 7, 8]",4,True,CHON,amide
5176,3-methylbut-2-enyl acetate,CC(=CCOC(=O)C)C,423.15,7,"[1, 6, 8]",3,True,CHO,ester
5177,2-methylcyclohexan-1-amine,CC1CCCCC1N,423.15,7,"[1, 6, 7]",3,True,CHN,amine
5178,"2,4-dimethylpiperidine",CC1CCNC(C1)C,423.19,7,"[1, 6, 7]",3,True,CHN,amine
5179,"2,4,6-trimethyl-1,3-dioxane",CC1CC(OC(O1)C)C,423.87,7,"[1, 6, 8]",3,True,CHO,ester
5180,ethyl 2-methylidenecyclopropane-1-carboxylate,CCOC(=O)C1CC1=C,423.88,7,"[1, 6, 8]",3,True,CHO,ester
5181,"1,5-dimethoxycyclopentene",COC1CCC=C1OC,424.02,7,"[1, 6, 8]",3,True,CHO,ester
5182,"4,6-dimethyloxan-2-one",CC1CC(OC(=O)C1)C,424.32,7,"[1, 6, 8]",3,True,CHO,ester
5183,3-ethylpiperidine,CCC1CCCNC1,424.65,7,"[1, 6, 7]",3,True,CHN,amine
5184,"3,3,5,5-tetramethyldioxolane",CC1(CC(OO1)(C)C)C,424.75,7,"[1, 6, 8]",3,True,CHO,ester
5185,"2,5-dimethoxy-5-methyl-2H-furan",CC1(C=CC(O1)OC)OC,425.15,7,"[1, 6, 8]",3,True,CHO,ester
5186,5-methylhex-4-en-2-one,CC(=CCC(=O)C)C,425.15,7,"[1, 6, 8]",3,True,CHO,alkene
5187,4-(dimethylamino)-3-methylbutan-2-one,CC(CN(C)C)C(=O)C,425.63,7,"[1, 6, 7, 8]",4,True,CHON,ketone
5188,"2,4-dimethylcyclopentan-1-one",CC1CC(C(=O)C1)C,425.65,7,"[1, 6, 8]",3,True,CHO,ketone
5189,3-methylcyclohexan-1-amine,CC1CCCC(C1)N,425.65,7,"[1, 6, 7]",3,True,CHN,amine
5190,"N,N-dimethylpentanamide",CCCCC(=O)N(C)C,426.07,7,"[1, 6, 7, 8]",4,True,CHON,amide
5191,4-methylhexan-1-amine,CCC(C)CCCN,426.15,7,"[1, 6, 7]",3,True,CHN,amine
5192,"3,4-dimethylpentan-2-ol",CC(C)C(C)C(C)O,426.15,7,"[1, 6, 8]",3,True,CHO,alcohol
5193,"1,5-dimethyltricyclo[2.1.0.02,5]pentan-3-one",CC12C3C1(C2C3=O)C,426.53,7,"[1, 6, 8]",3,True,CHO,ketone
5194,1-propan-2-ylpyrrole,CC(C)N1C=CC=C1,426.65,7,"[1, 6, 7]",3,True,CHN,aromatic
5195,3-ethenylpiperidine,C=CC1CCCNC1,426.65,7,"[1, 6, 7]",3,True,CHN,alkene
5196,hept-1-en-3-ol,CCCCC(C=C)O,426.9,7,"[1, 6, 8]",3,True,CHO,alkene
5197,methyl hex-2-ynoate,CCCC#CC(=O)OC,426.98,7,"[1, 6, 8]",3,True,CHO,ester
5198,ethyl pent-3-ynoate,CCOC(=O)CC#CC,426.98,7,"[1, 6, 8]",3,True,CHO,ester
5199,ethyl pent-2-ynoate,CCC#CC(=O)OCC,426.98,7,"[1, 6, 8]",3,True,CHO,ester
5200,2-[3-(oxiran-2-yl)propyl]oxirane,C1C(O1)CCCC2CO2,427.14,7,"[1, 6, 8]",3,True,CHO,ester
5201,(E)-hept-3-en-2-one,CCC/C=C/C(=O)C,427.15,7,"[1, 6, 8]",3,True,CHO,alkene
5202,methyl cyclopentanecarboxylate,COC(=O)C1CCCC1,427.4,7,"[1, 6, 8]",3,True,CHO,ester
5203,"2,2-dimethyl-4,5-dimethylidene-1,3-dioxolane",CC1(OC(=C)C(=C)O1)C,427.5,7,"[1, 6, 8]",3,True,CHO,ester
5204,"(E)-1-(1,1-dimethoxyethoxy)prop-1-ene",C/C=C/OC(C)(OC)OC,427.95,7,"[1, 6, 8]",3,True,CHO,ester
5205,"(Z)-1-(1,1-dimethoxyethoxy)prop-1-ene",C/C=C\OC(C)(OC)OC,427.95,7,"[1, 6, 8]",3,True,CHO,ester
5206,[(Z)-hex-3-enyl] formate,CC/C=C\CCOC=O,428.15,7,"[1, 6, 8]",3,True,CHO,ester
5207,(3-methylidenecyclobutyl) acetate,CC(=O)OC1CC(=C)C1,428.15,7,"[1, 6, 8]",3,True,CHO,ester
5208,"2-butan-2-yl-1,3-dioxolane",CCC(C)C1OCCO1,428.5,7,"[1, 6, 8]",3,True,CHO,ester
5209,"5-ethyl-2-methyl-1,3-dioxane",CCC1COC(OC1)C,428.54,7,"[1, 6, 8]",3,True,CHO,ester
5210,"2-ethyl-5-methyl-1,3-dioxane",CCC1OCC(CO1)C,428.54,7,"[1, 6, 8]",3,True,CHO,ester
5211,2-ethoxyoxane,CCOC1CCCCO1,428.68,7,"[1, 6, 8]",3,True,CHO,ester
5212,"2,2,4-trimethyl-1,3-dioxane",CC1CCOC(O1)(C)C,428.78,7,"[1, 6, 8]",3,True,CHO,ester
5213,"4,4,6-trimethyl-1,3-dioxane",CC1CC(OCO1)(C)C,428.78,7,"[1, 6, 8]",3,True,CHO,ester
5214,heptyl nitrite,CCCCCCCON=O,428.95,7,"[1, 6, 7, 8]",4,True,CHON,ester
5215,N-but-3-enyl-N-prop-2-enylnitrous amide,C=CCCN(CC=C)N=O,428.96,7,"[1, 6, 7, 8]",4,True,CHON,alkene
5216,6-ethyloxan-2-one,CCC1CCCC(=O)O1,428.99,7,"[1, 6, 8]",3,True,CHO,ester
5217,"3,3,5-trimethylfuran-2-one",CC1=CC(C(=O)O1)(C)C,429.1,7,"[1, 6, 8]",3,True,CHO,ester
5218,(E)-5-methylhex-3-en-2-one,CC(C)/C=C/C(=O)C,429.15,7,"[1, 6, 8]",3,True,CHO,alkene
5219,"(5E)-hepta-1,5-dien-4-ol",C/C=C/C(CC=C)O,429.15,7,"[1, 6, 8]",3,True,CHO,alkene
5220,2-azabicyclo[2.2.2]oct-5-ene,C1CC2C=CC1CN2,429.49,7,"[1, 6, 7]",3,True,CHN,alkene
5221,3-azabicyclo[3.2.1]oct-6-ene,C1C2CNCC1C=C2,429.49,7,"[1, 6, 7]",3,True,CHN,alkene
5222,bicyclo[2.2.1]heptan-2-amine,C1CC2CC1CC2N,429.65,7,"[1, 6, 7]",3,True,CHN,amine
5223,"3-methoxy-2,2-dimethylcyclobutan-1-one",CC1(C(CC1=O)OC)C,430.15,7,"[1, 6, 8]",3,True,CHO,ester
5224,1-(diethylamino)propan-2-ol,CCN(CC)CC(C)O,430.15,7,"[1, 6, 7, 8]",4,True,CHON,alcohol
5225,"1,1,3-trimethoxybutane",CC(CC(OC)OC)OC,430.15,7,"[1, 6, 8]",3,True,CHO,ester
5226,2-azabicyclo[2.2.2]octane,C1CC2CCC1CN2,430.33,7,"[1, 6, 7]",3,True,CHN,amine
5227,2-ethylcyclopentan-1-one,CCC1CCCC1=O,430.65,7,"[1, 6, 8]",3,True,CHO,ketone
5228,3-(methoxymethyl)pentan-3-ol,CCC(CC)(COC)O,431.1,7,"[1, 6, 8]",3,True,CHO,ester
5229,"3-pyrrolidin-1-ylpropane-1,2-diol",C1CCN(C1)CC(CO)O,431.15,7,"[1, 6, 7, 8]",4,True,CHON,alcohol
5230,2-oxabicyclo[2.2.2]octan-3-one,C1CC2CCC1C(=O)O2,431.46,7,"[1, 6, 8]",3,True,CHO,ester
5231,2-cyclopentylethanamine,C1CCC(C1)CCN,431.65,7,"[1, 6, 7]",3,True,CHN,amine
5232,(E)-hept-2-en-4-one,CCCC(=O)/C=C/C,432.15,7,"[1, 6, 8]",3,True,CHO,alkene
5233,3-propylpyrrolidine,CCCC1CCNC1,432.15,7,"[1, 6, 7]",3,True,CHN,amine
5234,cyclopent-2-en-1-yl acetate,CC(=O)OC1CCC=C1,432.42,7,"[1, 6, 8]",3,True,CHO,ester
5235,1-propan-2-ylpiperazine,CC(C)N1CCNCC1,432.65,7,"[1, 6, 7]",3,True,CHN,amine
5236,2-(2-methylpropoxymethyl)oxirane,CC(C)COCC1CO1,432.65,7,"[1, 6, 8]",3,True,CHO,ester
5237,"2,3,3-trimethylbutan-1-ol",CC(CO)C(C)(C)C,433.15,7,"[1, 6, 8]",3,True,CHO,alcohol
5238,8-azabicyclo[3.2.1]oct-2-ene,C1CC2C=CCC1N2,433.25,7,"[1, 6, 7]",3,True,CHN,alkene
5239,"1,2-dimethoxycyclopentene",COC1=C(CCC1)OC,433.67,7,"[1, 6, 8]",3,True,CHO,ester
5240,"methyl 2,3-dimethylcycloprop-2-ene-1-carboxylate",CC1=C(C1C(=O)OC)C,433.84,7,"[1, 6, 8]",3,True,CHO,ester
5241,"spiro[2,3-dioxabicyclo[2.2.1]heptane-7,1'-cyclopropane]",C1CC2C3(C1OO2)CC3,434.12,7,"[1, 6, 8]",3,True,CHO,ester
5242,"2,2,3-trimethylcyclobutan-1-one",CC1CC(=O)C1(C)C,434.16,7,"[1, 6, 8]",3,True,CHO,ketone
5243,ethyl (E)-3-(dimethylamino)prop-2-enoate,CCOC(=O)/C=C/N(C)C,434.58,7,"[1, 6, 7, 8]",4,True,CHON,ester
5244,"tricyclo[2.2.1.02,6]heptan-3-one",C1C2CC3C1C3C2=O,434.59,7,"[1, 6, 8]",3,True,CHO,ketone
5245,2-(tert-butylperoxymethyl)oxirane,CC(C)(C)OOCC1CO1,435.06,7,"[1, 6, 8]",3,True,CHO,ester
5246,hept-1-yn-3-ol,CCCCC(C#C)O,435.15,7,"[1, 6, 8]",3,True,CHO,alkyne
5247,2-ethyl-3-methylbutan-1-ol,CCC(CO)C(C)C,435.15,7,"[1, 6, 8]",3,True,CHO,alcohol
5248,1-tert-butylimidazole,CC(C)(C)N1C=CN=C1,436.67,7,"[1, 6, 7]",3,True,CHN,aromatic
5249,cyclohexene-1-carbaldehyde,C1CCC(=CC1)C=O,436.78,7,"[1, 6, 8]",3,True,CHO,alkene
5250,2-methoxyethyl 2-methylprop-2-enoate,CC(=C)C(=O)OCCOC,436.96,7,"[1, 6, 8]",3,True,CHO,ester
5251,methyl 2-(aziridin-1-yl)butanoate,CCC(C(=O)OC)N1CC1,437.12,7,"[1, 6, 7, 8]",4,True,CHON,ester
5252,"2,3-dimethylpentan-1-ol",CCC(C)C(C)CO,437.15,7,"[1, 6, 8]",3,True,CHO,alcohol
5253,1-(cyclopenten-1-yl)ethanone,CC(=O)C1=CCCC1,437.72,7,"[1, 6, 8]",3,True,CHO,alkene
5254,"3,4-dimethylpentan-1-ol",CC(C)C(C)CCO,438.0,7,"[1, 6, 8]",3,True,CHO,alcohol
5255,"2,2-diethoxy-N-methylethanamine",CCOC(CNC)OCC,438.15,7,"[1, 6, 7, 8]",4,True,CHON,ester
5256,"3,4-dimethylcyclopentan-1-one",CC1CC(=O)CC1C,438.19,7,"[1, 6, 8]",3,True,CHO,ketone
5257,"3-(dimethylamino)-N,N-dimethylpropanamide",CN(C)CCC(=O)N(C)C,438.51,7,"[1, 6, 7, 8]",4,True,CHON,amide
5258,4-[dimethylamino(methyl)amino]butan-2-one,CC(=O)CCN(C)N(C)C,438.51,7,"[1, 6, 7, 8]",4,True,CHON,ketone
5259,"2,2-dimethylpentan-1-ol",CCCC(C)(C)CO,438.9,7,"[1, 6, 8]",3,True,CHO,alcohol
5260,"5-prop-1-en-2-yl-1,3-dioxane",CC(=C)C1COCOC1,439.15,7,"[1, 6, 8]",3,True,CHO,ester
5261,prop-2-enyl 2-hydroxy-2-methylpropanoate,CC(C)(C(=O)OCC=C)O,439.15,7,"[1, 6, 8]",3,True,CHO,ester
5262,2-(diethylamino)propan-1-ol,CCN(CC)C(C)CO,439.15,7,"[1, 6, 7, 8]",4,True,CHON,alcohol
5263,3-ethylpentan-1-ol,CCC(CC)CCO,439.15,7,"[1, 6, 8]",3,True,CHO,alcohol
5264,1-butylpyrazole,CCCCN1C=CC=N1,439.9,7,"[1, 6, 7]",3,True,CHN,aromatic
5265,"6,7-dioxabicyclo[3.2.2]nonane",C1CC2CCC(C1)OO2,439.95,7,"[1, 6, 8]",3,True,CHO,ester
5266,"7,8-dioxabicyclo[4.2.1]nonane",C1CCC2CC(C1)OO2,439.95,7,"[1, 6, 8]",3,True,CHO,ester
5267,2-propan-2-yloxyethyl acetate,CC(C)OCCOC(=O)C,439.96,7,"[1, 6, 8]",3,True,CHO,ester
5268,1-methoxypropan-2-yl propanoate,CCC(=O)OC(C)COC,439.96,7,"[1, 6, 8]",3,True,CHO,ester
5269,cycloheptanamine,C1CCCC(CC1)N,440.15,7,"[1, 6, 7]",3,True,CHN,amine
5270,1-cyclopentylethanol,CC(C1CCCC1)O,440.15,7,"[1, 6, 8]",3,True,CHO,alcohol
5271,2-propoxyethyl acetate,CCCOCCOC(=O)C,440.4,7,"[1, 6, 8]",3,True,CHO,ester
5272,3-hydroxy-3-methylhexan-2-one,CCCC(C)(C(=O)C)O,440.65,7,"[1, 6, 8]",3,True,CHO,alcohol
5273,2-(dimethylamino)ethyl propanoate,CCC(=O)OCCN(C)C,440.65,7,"[1, 6, 7, 8]",4,True,CHON,ester
5274,"ethyl N,N-diethylcarbamate",CCN(CC)C(=O)OCC,441.15,7,"[1, 6, 7, 8]",4,True,CHON,ester
5275,4-(2-methoxyethyl)morpholine,COCCN1CCOCC1,441.52,7,"[1, 6, 7, 8]",4,True,CHON,ester
5276,butyl ethyl carbonate,CCCCOC(=O)OCC,441.65,7,"[1, 6, 8]",3,True,CHO,ester
5277,methyl cyclopentene-1-carboxylate,COC(=O)C1=CCCC1,442.07,7,"[1, 6, 8]",3,True,CHO,ester
5278,oxocan-2-one,C1CCCOC(=O)CC1,442.2,7,"[1, 6, 8]",3,True,CHO,ester
5279,(Z)-hept-3-en-1-ol,CCC/C=C\CCO,442.65,7,"[1, 6, 8]",3,True,CHO,alkene
5280,3-ethylcyclopentan-1-one,CCC1CCC(=O)C1,442.86,7,"[1, 6, 8]",3,True,CHO,ketone
5281,3-(trimethoxymethoxy)prop-1-ene,COC(OC)(OC)OCC=C,442.89,7,"[1, 6, 8]",3,True,CHO,ester
5282,"3,4,6,7,8,9-hexahydro-1H-pyridazino[1,2-c][1,3,4]oxadiazine",C1CCN2COCCN2C1,442.95,7,"[1, 6, 7, 8]",4,True,CHON,ester
5283,"2,2-dimethylcyclopentan-1-one",CC1(CCCC1=O)C,443.1,7,"[1, 6, 8]",3,True,CHO,ketone
5284,"2,6-dimethyloxan-4-one",CC1CC(=O)CC(O1)C,443.15,7,"[1, 6, 8]",3,True,CHO,ester
5285,N-(oxolan-2-ylmethyl)ethanamine,CCNCC1CCCO1,443.65,7,"[1, 6, 7, 8]",4,True,CHON,ester
5286,"1,4-dioxaspiro[4.4]non-8-ene",C1CC2(C=C1)OCCO2,444.02,7,"[1, 6, 8]",3,True,CHO,ester
5287,4-methylcyclohex-3-en-1-one,CC1=CCC(=O)CC1,444.15,7,"[1, 6, 8]",3,True,CHO,alkene
5288,3-butoxypropanenitrile,CCCCOCCC#N,444.15,7,"[1, 6, 7, 8]",4,True,CHON,ester
5289,diethoxymethyl acetate,CCOC(OCC)OC(=O)C,444.15,7,"[1, 6, 8]",3,True,CHO,ester
5290,4-methylhexan-1-ol,CCC(C)CCCO,444.28091,7,"[1, 6, 8]",3,True,CHO,alcohol
5291,bicyclo[2.2.1]hept-2-en-7-one,C1CC2C=CC1C2=O,444.49,7,"[1, 6, 8]",3,True,CHO,alkene
5292,bicyclo[2.2.1]hept-5-en-2-one,C1C2CC(=O)C1C=C2,444.49,7,"[1, 6, 8]",3,True,CHO,alkene
5293,"2-methylhexa-1,5-dien-3-ol",CC(=C)C(CC=C)O,444.74,7,"[1, 6, 8]",3,True,CHO,alkene
5294,"5-methylhexa-1,5-dien-3-ol",CC(=C)CC(C=C)O,444.74,7,"[1, 6, 8]",3,True,CHO,alkene
5295,"2,3-dimethylpent-4-en-2-ol",CC(C=C)C(C)(C)O,444.95,7,"[1, 6, 8]",3,True,CHO,alkene