,Name,SMILES,Tb,C Atom,Atom,Count Unique Atom,Pass Screen,Atom2,Func. Group
6374,"2,6-dimethoxybenzene-1,4-diol",COC1=CC(=CC(=C1O)OC)O,452.15,8,"[1, 6, 8]",3,True,CHO,ester
6375,"2,2-dimethyl-N-prop-2-enylpropan-1-imine",CC(C)(C)C=NCC=C,452.77,8,"[1, 6, 7]",3,True,CHN,alkene
6376,cyclopentyl prop-2-enoate,C=CC(=O)OC1CCCC1,452.82,8,"[1, 6, 8]",3,True,CHO,ester
6377,3-ethoxy-4-methylpentanal,CCOC(CC=O)C(C)C,452.84,8,"[1, 6, 8]",3,True,CHO,ester
6378,4-hydroxybutyl 2-methylprop-2-enoate,CC(=C)C(=O)OCCCCO,453.15,8,"[1, 6, 8]",3,True,CHO,ester
6379,5-tert-butyl-3H-furan-2-one,CC(C)(C)C1=CCC(=O)O1,453.18,8,"[1, 6, 8]",3,True,CHO,ester
6380,cyclohexen-1-yl acetate,CC(=O)OC1=CCCCC1,453.65,8,"[1, 6, 8]",3,True,CHO,ester
6381,"2-ethyl-3,5-dimethylpyrazine",CCC1=NC=C(N=C1C)C,453.65,8,"[1, 6, 7]",3,True,CHN,aromatic
6382,"1-N,3-N-diethylbutane-1,3-diamine",CCNCCC(C)NCC,453.65,8,"[1, 6, 7]",3,True,CHN,amine
6383,5-methylheptan-3-amine,CCC(C)CC(CC)N,454.29,8,"[1, 6, 7]",3,True,CHN,amine
6384,2-methylheptan-3-amine,CCCCC(C(C)C)N,454.29,8,"[1, 6, 7]",3,True,CHN,amine
6385,"2,3-dimethyl-1,4,6,9-tetrahydropyridazino[1,2-a][1,2,4,5]tetrazine",CN1CN2CC=CCN2CN1C,454.38,8,"[1, 6, 7]",3,True,CHN,alkene
6386,"N,N-dimethyl-2-morpholin-4-ylethanamine",CN(C)CCN1CCOCC1,454.42,8,"[1, 6, 7, 8]",4,True,CHON,ester
6387,"9-azabicyclo[4.2.1]nona-2,4,7-triene",C1=CC2C=CC(N2)C=C1,454.96,8,"[1, 6, 7]",3,True,CHN,alkene
6388,4-methylcyclohex-3-ene-1-carbaldehyde,CC1=CCC(CC1)C=O,454.99,8,"[1, 6, 8]",3,True,CHO,alkene
6389,"3-propan-2-ylpentane-2,4-dione",CC(C)C(C(=O)C)C(=O)C,455.65,8,"[1, 6, 8]",3,True,CHO,ketone
6390,1-(aziridin-1-yl)-2-ethylbutan-1-one,CCC(CC)C(=O)N1CC1,455.65,8,"[1, 6, 7, 8]",4,True,CHON,amide
6391,"2-ethoxy-6-methyl-3,4-dihydro-2H-pyran",CCOC1CCC=C(O1)C,455.7,8,"[1, 6, 8]",3,True,CHO,ester
6392,"9-azabicyclo[4.2.1]nona-2,4-diene",C1CC2C=CC=CC1N2,455.8,8,"[1, 6, 7]",3,True,CHN,alkene
6393,1-(aziridin-1-yl)hexan-1-one,CCCCCC(=O)N1CC1,456.09,8,"[1, 6, 7, 8]",4,True,CHON,amide
6394,3-propan-2-ylidenepiperidine,CC(=C1CCCNC1)C,456.15,8,"[1, 6, 7]",3,True,CHN,alkene
6395,2-propylcyclopentan-1-one,CCCC1CCCC1=O,456.15,8,"[1, 6, 8]",3,True,CHO,ketone
6396,"2,3,4-trimethylpentan-1-ol",CC(C)C(C)C(C)CO,456.15,8,"[1, 6, 8]",3,True,CHO,alcohol
6397,"3,5-dimethylhexan-1-ol",CC(C)CC(C)CCO,456.15,8,"[1, 6, 8]",3,True,CHO,alcohol
6398,"2,2,4-trimethyl-3H-pyran-6-one",CC1=CC(=O)OC(C1)(C)C,456.25,8,"[1, 6, 8]",3,True,CHO,ester
6399,"4,6,6-trimethyl-3H-pyran-2-one",CC1=CC(OC(=O)C1)(C)C,456.25,8,"[1, 6, 8]",3,True,CHO,ester
6400,5-methylheptan-1-ol,CCC(C)CCCCO,456.27755,8,"[1, 6, 8]",3,True,CHO,alcohol
6401,"2,6-dioxatricyclo[3.3.1.13,7]decane",C1C2CC3CC(O2)CC1O3,456.36,8,"[1, 6, 8]",3,True,CHO,ester
6402,methyl 1-methylcyclopentane-1-carboxylate,CC1(CCCC1)C(=O)OC,456.38,8,"[1, 6, 8]",3,True,CHO,ester
6403,9-azabicyclo[4.2.1]non-7-ene,C1CCC2C=CC(C1)N2,456.64,8,"[1, 6, 7]",3,True,CHN,alkene
6404,1-methylcycloheptan-1-ol,CC1(CCCCCC1)O,456.65,8,"[1, 6, 8]",3,True,CHO,alcohol
6405,3-azabicyclo[3.2.2]nonane,C1CC2CCC1CNC2,457.48,8,"[1, 6, 7]",3,True,CHN,amine
6406,9-azabicyclo[4.2.1]nonane,C1CCC2CCC(C1)N2,457.48,8,"[1, 6, 7]",3,True,CHN,amine
6407,ethyl 4-ethoxybutanoate,CCOCCCC(=O)OCC,457.65,8,"[1, 6, 8]",3,True,CHO,ester
6408,2-[(Z)-hex-3-enoxy]acetaldehyde,CC/C=C\CCOCC=O,457.88,8,"[1, 6, 8]",3,True,CHO,ester
6409,"4-ethyl-4-methyloxane-2,6-dione",CCC1(CC(=O)OC(=O)C1)C,458.15,8,"[1, 6, 8]",3,True,CHO,ether
6410,3-methylhept-6-en-1-yn-3-ol,CC(CCC=C)(C#C)O,458.39,8,"[1, 6, 8]",3,True,CHO,alkene
6411,"3,4,4-trimethylpent-1-yn-3-ol",CC(C)(C)C(C)(C#C)O,458.48,8,"[1, 6, 8]",3,True,CHO,alkyne
6412,"2,3,3a,4,5,6,7,7a-octahydro-1H-indole",C1CCC2C(C1)CCN2,458.65,8,"[1, 6, 7]",3,True,CHN,amine
6413,2-(dimethylamino)ethyl butanoate,CCCC(=O)OCCN(C)C,458.65,8,"[1, 6, 7, 8]",4,True,CHON,ester
6414,"2,5-diethyl-1H-pyrrole",CCC1=CC=C(N1)CC,459.2,8,"[1, 6, 7]",3,True,CHN,aromatic
6415,"4,4-dimethylcyclohexan-1-ol",CC1(CCC(CC1)O)C,459.2,8,"[1, 6, 8]",3,True,CHO,alcohol
6416,2-methyl-2-[2-(2-methyloxiran-2-yl)ethynyl]oxirane,CC1(CO1)C#CC2(CO2)C,459.5,8,"[1, 6, 8]",3,True,CHO,ester
6417,3-methoxybutyl prop-2-enoate,CC(CCOC(=O)C=C)OC,459.52,8,"[1, 6, 8]",3,True,CHO,ester
6418,2-ethoxyethyl 2-methylprop-2-enoate,CCOCCOC(=O)C(=C)C,459.84,8,"[1, 6, 8]",3,True,CHO,ester
6419,"N,N-diethyl-3,3-dimethylazirin-2-amine",CCN(CC)C1=NC1(C)C,459.9,8,"[1, 6, 7]",3,True,CHN,amine
6420,5-hydroxy-5-methylheptan-3-one,CCC(=O)CC(C)(CC)O,460.15,8,"[1, 6, 8]",3,True,CHO,alcohol
6421,"methyl 4,4-dimethyl-3-oxopentanoate",CC(C)(C)C(=O)CC(=O)OC,460.15,8,"[1, 6, 8]",3,True,CHO,ester
6422,(Z)-N-tert-butylbut-2-en-1-imine,C/C=C\C=NC(C)(C)C,460.25,8,"[1, 6, 7]",3,True,CHN,alkene
6423,"2,2-dimethyl-N-[(E)-prop-1-enyl]propan-1-imine",C/C=C/N=CC(C)(C)C,460.25,8,"[1, 6, 7]",3,True,CHN,alkene
6424,"2,5-diethylpyrazine",CCC1=CN=C(C=N1)CC,460.65,8,"[1, 6, 7]",3,True,CHN,aromatic
6425,"7-propan-2-ylidene-2,3-dioxabicyclo[2.2.1]heptane",CC(=C1C2CCC1OO2)C,460.81,8,"[1, 6, 8]",3,True,CHO,alkene
6426,"1,2-dimethoxycyclohexene",COC1=C(CCCC1)OC,460.82,8,"[1, 6, 8]",3,True,CHO,ester
6427,1-heptyl-1-nitrosourea,CCCCCCCN(C(=O)N)N=O,461.15,8,"[1, 6, 7, 8]",4,True,CHON,amide
6428,1-(oxiran-2-yl)-7-oxabicyclo[4.1.0]heptane,C1CCC2(C(C1)O2)C3CO3,461.27,8,"[1, 6, 8]",3,True,CHO,ester
6429,"3,5-dimethyl-1-prop-2-enylpyrazole",CC1=CC(=NN1CC=C)C,461.65,8,"[1, 6, 7]",3,True,CHN,alkene
6430,"tricyclo[3.2.1.02,4]octan-8-one",C1CC2C3CC3C1C2=O,461.74,8,"[1, 6, 8]",3,True,CHO,ketone
6431,"3,4-dimethylcyclohexan-1-ol",CC1CCC(CC1C)O,462.15,8,"[1, 6, 8]",3,True,CHO,alcohol
6432,"1-tert-butylpyrrole-2,5-dione",CC(C)(C)N1C(=O)C=CC1=O,462.15,8,"[1, 6, 7, 8]",4,True,CHON,amide
6433,1-propan-2-yloxypropan-2-yl acetate,CC(C)OCC(C)OC(=O)C,462.4,8,"[1, 6, 8]",3,True,CHO,ester
6434,2-ethoxyethyl 2-methylpropanoate,CCOCCOC(=O)C(C)C,462.84,8,"[1, 6, 8]",3,True,CHO,ester
6435,"3,5-dimethyl-1-propylpyrazole",CCCN1C(=CC(=N1)C)C,463.15,8,"[1, 6, 7]",3,True,CHN,aromatic
6436,2-prop-2-enylpyridine,C=CCC1=CC=CC=N1,463.15,8,"[1, 6, 7]",3,True,CHN,alkene
6437,methyl 2-[(2-methylpropan-2-yl)oxycarbonylamino]acetate,CC(C)(C)OC(=O)NCC(=O)OC,463.15,8,"[1, 6, 7, 8]",4,True,CHON,ester
6438,3-propylcyclopentan-1-one,CCCC1CCC(=O)C1,463.65,8,"[1, 6, 8]",3,True,CHO,ketone
6439,4-methylhept-1-yn-3-ol,CCCC(C)C(C#C)O,464.06,8,"[1, 6, 8]",3,True,CHO,alkyne
6440,[(E)-3-prop-2-enoxyprop-2-enyl] acetate,CC(=O)OC/C=C/OCC=C,464.12,8,"[1, 6, 8]",3,True,CHO,ester
6441,2-methylcycloheptan-1-ol,CC1CCCCCC1O,464.15,8,"[1, 6, 8]",3,True,CHO,alcohol
6442,tert-butyl but-2-eneperoxoate,CC=CC(=O)OOC(C)(C)C,464.21,8,"[1, 6, 8]",3,True,CHO,alkene
6443,ethyl 3-(azetidin-1-yl)propanoate,CCOC(=O)CCN1CCC1,464.71,8,"[1, 6, 7, 8]",4,True,CHON,ester
6444,oct-7-yn-1-ol,C#CCCCCCCO,464.94,8,"[1, 6, 8]",3,True,CHO,alkyne
6445,"3,4,4-trimethylpent-1-en-3-ol",CC(C)(C)C(C)(C=C)O,465.04,8,"[1, 6, 8]",3,True,CHO,alkene
6446,1-ethynylcyclohexan-1-amine,C#CC1(CCCCC1)N,465.08,8,"[1, 6, 7]",3,True,CHN,alkyne
6447,"methyl 7-azabicyclo[2.2.1]hepta-2,5-diene-7-carboxylate",COC(=O)N1C2C=CC1C=C2,465.1,8,"[1, 6, 7, 8]",4,True,CHON,ester
6448,1-(furan-2-yl)butan-1-one,CCCC(=O)C1=CC=CO1,465.15,8,"[1, 6, 8]",3,True,CHO,aromatic
6449,"3,4,5-trimethylcyclopent-2-en-1-one",CC1C(C(=O)C=C1C)C,465.21,8,"[1, 6, 8]",3,True,CHO,alkene
6450,"octane-2,4-dione",CCCCC(=O)CC(=O)C,465.65,8,"[1, 6, 8]",3,True,CHO,ketone
6451,4-ethyl-3-methylpyridine,CCC1=C(C=NC=C1)C,465.65,8,"[1, 6, 7]",3,True,CHN,aromatic
6452,1-piperidin-1-ylpropan-2-ol,CC(CN1CCCCC1)O,465.65,8,"[1, 6, 7, 8]",4,True,CHON,alcohol
6453,"7,8-dioxabicyclo[4.2.2]dec-9-ene",C1CCC2C=CC(C1)OO2,466.26,8,"[1, 6, 8]",3,True,CHO,alkene
6454,1-piperidin-1-ylpropan-2-amine,CC(CN1CCCCC1)N,466.65,8,"[1, 6, 7]",3,True,CHN,amine
6455,methyl 7-azabicyclo[2.2.1]heptane-7-carboxylate,COC(=O)N1C2CCC1CC2,466.78,8,"[1, 6, 7, 8]",4,True,CHON,ester
6456,"7,8-dioxabicyclo[4.2.2]decane",C1CCC2CCC(C1)OO2,467.1,8,"[1, 6, 8]",3,True,CHO,ester
6457,"9,10-dioxabicyclo[3.3.2]decane",C1CC2CCCC(C1)OO2,467.1,8,"[1, 6, 8]",3,True,CHO,ester
6458,"8,9-dioxabicyclo[5.2.1]decane",C1CCC2CC(CC1)OO2,467.1,8,"[1, 6, 8]",3,True,CHO,ester
6459,3-(oxolan-3-yl)oxolane,C1COCC1C2CCOC2,467.1,8,"[1, 6, 8]",3,True,CHO,ester
6460,"5-methyl-1,3-benzodioxole",CC1=CC2=C(C=C1)OCO2,467.15,8,"[1, 6, 8]",3,True,CHO,ester
6461,2-ethoxy-N-(2-ethoxyethyl)ethanamine,CCOCCNCCOCC,467.15,8,"[1, 6, 7, 8]",4,True,CHON,ester
6462,"1-(2,5-dimethylfuran-3-yl)ethanone",CC1=CC(=C(O1)C)C(=O)C,467.15,8,"[1, 6, 8]",3,True,CHO,aromatic
6463,ethyl (E)-3-ethoxybut-2-enoate,CCO/C(=C/C(=O)OCC)/C,467.32,8,"[1, 6, 8]",3,True,CHO,ester
6464,3-methylidenebicyclo[2.2.1]heptan-2-one,C=C1C2CCC(C2)C1=O,467.37,8,"[1, 6, 8]",3,True,CHO,alkene
6465,"2,2-dimethylhex-5-en-3-ol",CC(C)(C)C(CC=C)O,467.83,8,"[1, 6, 8]",3,True,CHO,alkene
6466,"2,3-dimethylhex-5-en-3-ol",CC(C)C(C)(CC=C)O,467.83,8,"[1, 6, 8]",3,True,CHO,alkene
6467,1-piperidin-2-ylpropan-2-one,CC(=O)CC1CCCCN1,468.15,8,"[1, 6, 7, 8]",4,True,CHON,ketone
6468,"1-(3,5-dimethylfuran-2-yl)ethanone",CC1=CC(=C(O1)C(=O)C)C,468.15,8,"[1, 6, 8]",3,True,CHO,aromatic
6469,(4Z)-9-oxabicyclo[6.1.0]non-4-ene,C/1CC2C(O2)CC/C=C1,468.15,8,"[1, 6, 8]",3,True,CHO,ester
6470,azonane,C1CCCCNCCC1,468.22,8,"[1, 6, 7]",3,True,CHN,amine
6471,2-bicyclo[2.2.1]heptanylmethanamine,C1CC2CC1CC2CN,468.25,8,"[1, 6, 7]",3,True,CHN,amine
6472,4-methylhept-1-en-4-ol,CCCC(C)(CC=C)O,468.27,8,"[1, 6, 8]",3,True,CHO,alkene
6473,3-ethylhex-5-en-3-ol,CCC(CC)(CC=C)O,468.27,8,"[1, 6, 8]",3,True,CHO,alkene
6474,N-[(E)-butan-2-ylideneamino]-N-methylprop-2-en-1-amine,CC/C(=N/N(C)CC=C)/C,468.32,8,"[1, 6, 7]",3,True,CHN,alkene
6475,"2,2,3,3-tetramethylbutan-1-ol",CC(C)(C)C(C)(C)CO,468.36,8,"[1, 6, 8]",3,True,CHO,alcohol
6476,1-methylbicyclo[2.2.1]heptan-2-one,CC12CCC(C1)CC2=O,468.45,8,"[1, 6, 8]",3,True,CHO,ketone
6477,methyl 1-methylpiperidine-4-carboxylate,CN1CCC(CC1)C(=O)OC,468.58,8,"[1, 6, 7, 8]",4,True,CHON,ester
6478,(E)-1-pyrrolidin-1-ylbut-2-en-1-one,C/C=C/C(=O)N1CCCC1,468.79,8,"[1, 6, 7, 8]",4,True,CHON,amide
6479,"N,4-dimethylcyclohexan-1-amine",CC1CCC(CC1)NC,469.15,8,"[1, 6, 7]",3,True,CHN,amine
6480,"N,N-di(propan-2-yl)acetamide",CC(C)N(C(C)C)C(=O)C,469.2,8,"[1, 6, 7, 8]",4,True,CHON,amide
6481,oxonan-2-one,C1CCCC(=O)OCCC1,469.35,8,"[1, 6, 8]",3,True,CHO,ester
6482,"4,4-dimethylcyclohex-2-en-1-one",CC1(CCC(=O)C=C1)C,469.41,8,"[1, 6, 8]",3,True,CHO,alkene
6483,"5,5-dimethylcyclohex-2-en-1-one",CC1(CC=CC(=O)C1)C,469.41,8,"[1, 6, 8]",3,True,CHO,alkene
6484,butyl 3-methyloxirane-2-carboxylate,CCCCOC(=O)C1C(O1)C,469.88,8,"[1, 6, 8]",3,True,CHO,ester
6485,2-ethylcyclohexan-1-one,CCC1CCCCC1=O,470.01,8,"[1, 6, 8]",3,True,CHO,ketone
6486,"3,5,5-trimethylcyclopent-2-en-1-one",CC1=CC(=O)C(C1)(C)C,470.12,8,"[1, 6, 8]",3,True,CHO,alkene
6487,"3,4,4-trimethylcyclopent-2-en-1-one",CC1=CC(=O)CC1(C)C,470.12,8,"[1, 6, 8]",3,True,CHO,alkene
6488,"4,4-dimethylcyclohexan-1-one",CC1(CCC(=O)CC1)C,470.25,8,"[1, 6, 8]",3,True,CHO,ketone
6489,"2,5-dimethylhex-5-en-3-ol",CC(C)C(CC(=C)C)O,470.5,8,"[1, 6, 8]",3,True,CHO,alkene
6490,2-methylhept-6-en-3-ol,CC(C)C(CCC=C)O,470.62,8,"[1, 6, 8]",3,True,CHO,alkene
6491,5-methylhept-1-en-4-ol,CCC(C)C(CC=C)O,470.62,8,"[1, 6, 8]",3,True,CHO,alkene
6492,2-methylhept-1-en-3-ol,CCCCC(C(=C)C)O,470.94,8,"[1, 6, 8]",3,True,CHO,alkene
6493,3-methylhept-6-en-1-ol,CC(CCC=C)CCO,471.06,8,"[1, 6, 8]",3,True,CHO,alkene
6494,oct-1-en-4-ol,CCCCC(CC=C)O,471.06,8,"[1, 6, 8]",3,True,CHO,alkene
6495,oct-7-en-4-ol,CCCC(CCC=C)O,471.06,8,"[1, 6, 8]",3,True,CHO,alkene
6496,[(Z)-hex-3-enyl] acetate,CC/C=C\CCOC(=O)C,471.15,8,"[1, 6, 8]",3,True,CHO,ester
6497,2-(dimethylamino)cyclohexan-1-ol,CN(C)C1CCCCC1O,471.15,8,"[1, 6, 7, 8]",4,True,CHON,alcohol
6498,"3,4,4-trimethylpentan-1-ol",CC(CCO)C(C)(C)C,471.15,8,"[1, 6, 8]",3,True,CHO,alcohol
6499,"3,3-dimethylhexan-2-ol",CCCC(C)(C)C(C)O,471.15,8,"[1, 6, 8]",3,True,CHO,alcohol
6500,3-ethyl-3-methylpentan-2-ol,CCC(C)(CC)C(C)O,471.15,8,"[1, 6, 8]",3,True,CHO,alcohol
6501,"2-ethyl-3,3-dimethylbutan-1-ol",CCC(CO)C(C)(C)C,471.15,8,"[1, 6, 8]",3,True,CHO,alcohol
6502,"1,4-dioxaspiro[4.5]dec-7-ene",C1CC2(CC=C1)OCCO2,471.17,8,"[1, 6, 8]",3,True,CHO,ester
6503,(2-methyloxiran-2-yl)methyl 2-methylprop-2-enoate,CC(=C)C(=O)OCC1(CO1)C,471.35,8,"[1, 6, 8]",3,True,CHO,ester
6504,"5,5-dimethylhexan-1-ol",CC(C)(C)CCCCO,471.59,8,"[1, 6, 8]",3,True,CHO,alcohol
6505,"4,4-dimethylhexan-1-ol",CCC(C)(C)CCCO,471.59,8,"[1, 6, 8]",3,True,CHO,alcohol
6506,"3,3-dimethylhexan-1-ol",CCCC(C)(C)CCO,471.59,8,"[1, 6, 8]",3,True,CHO,alcohol
6507,3-ethyl-3-methylpentan-1-ol,CCC(C)(CC)CCO,471.59,8,"[1, 6, 8]",3,True,CHO,alcohol
6508,"2,2-diethylbutan-1-ol",CCC(CC)(CC)CO,471.59,8,"[1, 6, 8]",3,True,CHO,alcohol
6509,bicyclo[2.2.2]oct-5-en-2-one,C1CC2C=CC1CC2=O,471.64,8,"[1, 6, 8]",3,True,CHO,alkene
6510,"N,N-dimethyl-N'-pentylmethanimidamide",CCCCCN=CN(C)C,471.76,8,"[1, 6, 7]",3,True,CHN,amine
6511,"1,1-bis(2-methoxyethoxy)ethane",CC(OCCOC)OCCOC,471.88,8,"[1, 6, 8]",3,True,CHO,ester
6512,2-[2-[2-(oxiran-2-yl)ethoxy]ethyl]oxirane,C1C(O1)CCOCCC2CO2,472.44,8,"[1, 6, 8]",3,True,CHO,ester
6513,bicyclo[2.2.2]octan-2-one,C1CC2CCC1CC2=O,472.48,8,"[1, 6, 8]",3,True,CHO,ketone
6514,bicyclo[3.2.1]octan-2-one,C1CC2CC1CCC2=O,472.48,8,"[1, 6, 8]",3,True,CHO,ketone
6515,bicyclo[3.2.1]octan-3-one,C1CC2CC1CC(=O)C2,472.48,8,"[1, 6, 8]",3,True,CHO,ketone
6516,"3,3a,4,5,6,6a-hexahydro-2H-pentalen-1-one",C1CC2CCC(=O)C2C1,472.48,8,"[1, 6, 8]",3,True,CHO,ketone
6517,bicyclo[3.2.1]octan-8-one,C1CC2CCC(C1)C2=O,472.48,8,"[1, 6, 8]",3,True,CHO,ketone
6518,"2-methylcyclohepta-3,5-dien-1-one",CC1C=CC=CCC1=O,472.6,8,"[1, 6, 8]",3,True,CHO,alkene
6519,2-(dimethylamino)phenol,CN(C)C1=CC=CC=C1O,472.65,8,"[1, 6, 7, 8]",4,True,CHON,alcohol
6520,2-cyclobutylbut-3-yn-2-ol,CC(C#C)(C1CCC1)O,472.72,8,"[1, 6, 8]",3,True,CHO,alkyne
6521,2-methyl-2-[(2-methyloxiran-2-yl)methoxymethyl]oxirane,CC1(CO1)COCC2(CO2)C,472.92,8,"[1, 6, 8]",3,True,CHO,ester
6522,"4-ethyl-2,3-dimethyl-1H-pyrrole",CCC1=CNC(=C1C)C,473.15,8,"[1, 6, 7]",3,True,CHN,aromatic
6523,"7-methylpyrazolo[1,5-a]pyridine",CC1=CC=CC2=CC=NN12,473.65,8,"[1, 6, 7]",3,True,CHN,aromatic
6524,"4,5-dimethylhexan-1-ol",CC(C)C(C)CCCO,473.94,8,"[1, 6, 8]",3,True,CHO,alcohol
6525,"3,4-dimethylhexan-1-ol",CCC(C)C(C)CCO,473.94,8,"[1, 6, 8]",3,True,CHO,alcohol
6526,2-(2-methoxyethoxy)oxane,COCCOC1CCCCO1,473.98,8,"[1, 6, 8]",3,True,CHO,ester
6527,(Z)-4-butoxy-4-oxobut-2-enoic acid,CCCCOC(=O)/C=C\C(=O)O,474.15,8,"[1, 6, 8]",3,True,CHO,carboxylic_acid
6528,3-ethylhexan-1-ol,CCCC(CC)CCO,474.38,8,"[1, 6, 8]",3,True,CHO,alcohol
6529,2-cyclohexylethanamine,C1CCC(CC1)CCN,474.72,8,"[1, 6, 7]",3,True,CHN,amine
6530,"(E)-1,1,4,4-tetramethoxybut-2-ene",COC(/C=C/C(OC)OC)OC,475.6,8,"[1, 6, 8]",3,True,CHO,ester
6531,dimethyl 2-propylpropanedioate,CCCC(C(=O)OC)C(=O)OC,476.15,8,"[1, 6, 8]",3,True,CHO,ester
6532,tert-butyl N-(3-aminopropyl)carbamate,CC(C)(C)OC(=O)NCCCN,476.15,8,"[1, 6, 7, 8]",4,True,CHON,ester
6533,"2-(furan-2-yl)-4-methyl-1,3-dioxolane",CC1COC(O1)C2=CC=CO2,476.65,8,"[1, 6, 8]",3,True,CHO,ester
6534,2-methylpropyl 3-oxobutanoate,CC(C)COC(=O)CC(=O)C,477.0,8,"[1, 6, 8]",3,True,CHO,ester
6535,1-prop-2-enylpyridin-2-one,C=CCN1C=CC=CC1=O,477.85,8,"[1, 6, 7, 8]",4,True,CHON,alkene
6536,"2,5-dimethylhex-4-en-3-ol",CC(C)C(C=C(C)C)O,477.98,8,"[1, 6, 8]",3,True,CHO,alkene
6537,(E)-4-methylhept-4-en-3-ol,CC/C=C(\C)/C(CC)O,478.42,8,"[1, 6, 8]",3,True,CHO,alkene
6538,(E)-6-methylhept-3-en-1-ol,CC(C)C/C=C/CCO,478.54,8,"[1, 6, 8]",3,True,CHO,alkene
6539,(E)-oct-3-en-2-ol,CCCC/C=C/C(C)O,478.54,8,"[1, 6, 8]",3,True,CHO,alkene
6540,1-butylpyrrolidin-2-one,CCCCN1CCCC1=O,478.58,8,"[1, 6, 7, 8]",4,True,CHON,amide
6541,"1,6-dioxacyclodeca-3,8-diyne",C1C#CCOCC#CCO1,478.76,8,"[1, 6, 8]",3,True,CHO,ester
6542,(E)-2-ethylhex-2-en-1-ol,CCC/C=C(\CC)/CO,478.86,8,"[1, 6, 8]",3,True,CHO,alkene
6543,(E)-oct-2-en-1-ol,CCCCC/C=C/CO,478.98,8,"[1, 6, 8]",3,True,CHO,alkene
6544,(Z)-oct-3-en-1-ol,CCCC/C=C\CCO,478.98,8,"[1, 6, 8]",3,True,CHO,alkene
6545,(Z)-oct-5-en-1-ol,CC/C=C\CCCCO,478.98,8,"[1, 6, 8]",3,True,CHO,alkene
6546,cycloheptylmethanamine,C1CCCC(CC1)CN,478.99,8,"[1, 6, 7]",3,True,CHN,amine
6547,"1,1,3,3-tetramethoxycyclobutane",COC1(CC(C1)(OC)OC)OC,479.14,8,"[1, 6, 8]",3,True,CHO,ester
6548,"3,4,5-trimethylpyridine",CC1=CN=CC(=C1C)C,479.15,8,"[1, 6, 7]",3,True,CHN,aromatic
6549,4-(2-ethoxyethyl)morpholine,CCOCCN1CCOCC1,479.15,8,"[1, 6, 7, 8]",4,True,CHON,ester
6550,3-ethyl-3-methylpentanoic acid,CCC(C)(CC)CC(=O)O,479.65,8,"[1, 6, 8]",3,True,CHO,alcohol
6551,oxolan-2-ylmethyl prop-2-enoate,C=CC(=O)OCC1CCCO1,479.77,8,"[1, 6, 8]",3,True,CHO,ester
6552,6-methylhept-6-en-4-yn-2-ol,CC(CC#CC(=C)C)O,479.94,8,"[1, 6, 8]",3,True,CHO,alkene
6553,6-methylhept-6-en-4-yn-3-ol,CCC(C#CC(=C)C)O,479.94,8,"[1, 6, 8]",3,True,CHO,alkene
6554,octanedial,C(CCCC=O)CCC=O,479.96,8,"[1, 6, 8]",3,True,CHO,aldehyde
6555,N-tert-butyl-2-methylprop-2-enamide,CC(=C)C(=O)NC(C)(C)C,480.01,8,"[1, 6, 7, 8]",4,True,CHON,alkene
6556,"2,3-benzodioxine-1,4-dione",C1=CC=C2C(=C1)C(=O)OOC2=O,480.15,8,"[1, 6, 8]",3,True,CHO,aromatic
6557,dimethyl 2-prop-2-enylpropanedioate,COC(=O)C(CC=C)C(=O)OC,480.15,8,"[1, 6, 8]",3,True,CHO,ester
6558,2-[bis(prop-2-enyl)amino]ethanol,C=CCN(CCO)CC=C,480.62,8,"[1, 6, 7, 8]",4,True,CHON,alkene
6559,1-ethoxy-3-propan-2-yloxypropan-2-ol,CCOCC(COC(C)C)O,481.15,8,"[1, 6, 8]",3,True,CHO,ester
6560,1-butoxy-3-methoxypropan-2-ol,CCCCOCC(COC)O,481.15,8,"[1, 6, 8]",3,True,CHO,ester
6561,ethyl 2-[(2-ethoxy-2-oxoethyl)amino]acetate,CCOC(=O)CNCC(=O)OCC,481.15,8,"[1, 6, 7, 8]",4,True,CHON,ester
6562,1-propylpyridin-2-one,CCCN1C=CC=CC1=O,481.17,8,"[1, 6, 7, 8]",4,True,CHON,aromatic
6563,2-ethenylcyclohexan-1-one,C=CC1CCCCC1=O,481.32,8,"[1, 6, 8]",3,True,CHO,alkene
6564,"tricyclo[3.2.1.02,4]octan-8-ol",C1CC2C3CC3C1C2O,481.43,8,"[1, 6, 8]",3,True,CHO,alcohol
6565,2-hydroxy-3-methylbenzaldehyde,CC1=C(C(=CC=C1)C=O)O,481.65,8,"[1, 6, 8]",3,True,CHO,aldehyde
6566,"3,3-dimethylhexanoic acid",CCCC(C)(C)CC(=O)O,482.0,8,"[1, 6, 8]",3,True,CHO,alcohol
6567,"2,5-dimethyl-3,4-dihydropyran-2-carbaldehyde",CC1=COC(CC1)(C)C=O,482.18,8,"[1, 6, 8]",3,True,CHO,ester
6568,(2Z)-cyclooct-2-en-1-one,C1CC/C=C\C(=O)CC1,482.38,8,"[1, 6, 8]",3,True,CHO,alkene
6569,1-propan-2-ylpiperidin-4-one,CC(C)N1CCC(=O)CC1,482.41,8,"[1, 6, 7, 8]",4,True,CHON,ketone
6570,2-(dimethylamino)cyclohexan-1-one,CN(C)C1CCCCC1=O,482.45,8,"[1, 6, 7, 8]",4,True,CHON,ketone
6571,"2,4,4,6-tetramethyl-5,6-dihydro-1,3-oxazine",CC1CC(N=C(O1)C)(C)C,482.55,8,"[1, 6, 7, 8]",4,True,CHON,ester
6572,1-propylpiperidin-4-one,CCCN1CCC(=O)CC1,482.85,8,"[1, 6, 7, 8]",4,True,CHON,ketone
6573,"N,N'-dimethylhexane-1,6-diamine",CNCCCCCCNC,482.98,8,"[1, 6, 7]",3,True,CHN,amine
6574,"N,N'-diethylbutane-1,4-diamine",CCNCCCCNCC,482.98,8,"[1, 6, 7]",3,True,CHN,amine
6575,"(2E,4E)-octa-2,4-dien-1-ol",CCC/C=C/C=C/CO,483.14,8,"[1, 6, 8]",3,True,CHO,alkene
6576,N-acetyl-N-(2-methylpropyl)acetamide,CC(C)CN(C(=O)C)C(=O)C,483.15,8,"[1, 6, 7, 8]",4,True,CHON,amide
6577,diethyl 2-methylidenepropanedioate,CCOC(=O)C(=C)C(=O)OCC,483.15,8,"[1, 6, 8]",3,True,CHO,ester
6578,"2,2,4-trimethylpentane-1,4-diol",CC(C)(CC(C)(C)O)CO,483.15,8,"[1, 6, 8]",3,True,CHO,alcohol
6579,oct-5-yn-3-ol,CCC#CCC(CC)O,483.38,8,"[1, 6, 8]",3,True,CHO,alkyne
6580,oct-4-yn-2-ol,CCCC#CCC(C)O,483.38,8,"[1, 6, 8]",3,True,CHO,alkyne
6581,"2,3,4,6,7,8-hexahydro-1H-pyrido[1,2-a]pyrimidine",C1CC=C2NCCCN2C1,483.4,8,"[1, 6, 7]",3,True,CHN,alkene
6582,2-(cyclohexen-1-yl)ethanamine,C1CCC(=CC1)CCN,483.53,8,"[1, 6, 7]",3,True,CHN,alkene
6583,"1,1,3,3-tetramethyl-2-propan-2-ylguanidine",CC(C)N=C(N(C)C)N(C)C,483.64,8,"[1, 6, 7]",3,True,CHN,amine
6584,ethyl 3-methylpentanoate,CCC(C)CC(=O)OCC,483.65,8,"[1, 6, 8]",3,True,CHO,ester
6585,1-ethenylazepan-2-one,C=CN1CCCCCC1=O,483.8,8,"[1, 6, 7, 8]",4,True,CHON,amide
6586,oct-2-yn-1-ol,CCCCCC#CCO,483.82,8,"[1, 6, 8]",3,True,CHO,alkyne
6587,propyl furan-2-carboxylate,CCCOC(=O)C1=CC=CO1,484.05,8,"[1, 6, 8]",3,True,CHO,ester
6588,"N'-[3-(dimethylamino)propyl]-N,N-dimethylmethanimidamide",CN(C)CCCN=CN(C)C,484.2,8,"[1, 6, 7]",3,True,CHN,amine