,Name,SMILES,Tb,C Atom,Atom,Count Unique Atom,Pass Screen,Atom2,Func. Group
8223,"1,1,3,5-tetramethylcyclohexane",CC1CC(CC(C1)(C)C)C,438.85,10,"[1, 6]",2,True,CH,alkane
8224,"3,7-dimethylocta-1,6-diene",CC(CCC=C(C)C)C=C,439.15,10,"[1, 6]",2,True,CH,alkene
8225,"1,3,3,4,6,6-hexamethyl-2,5,7-trioxabicyclo[2.2.1]heptane",CC1(C2(OC(C(O1)(O2)C)(C)C)C)C,439.15,10,"[1, 6, 8]",3,True,CHO,ester
8226,"2,7-dimethylocta-1,7-dien-3,5-diyne",CC(=C)C#CC#CC(=C)C,439.52,10,"[1, 6]",2,True,CH,alkene
8227,"2-methyl-N,N-di(propan-2-yl)propan-1-amine",CC(C)CN(C(C)C)C(C)C,439.52,10,"[1, 6, 7]",3,True,CHN,amine
8228,2-methyl-3-propan-2-ylhexane,CCCC(C(C)C)C(C)C,439.86,10,"[1, 6]",2,True,CH,alkane
8229,"(4E,6Z)-2,6-dimethylocta-2,4,6-triene",C/C=C(/C)\C=C\C=C(C)C,440.64,10,"[1, 6]",2,True,CH,alkene
8230,"3,4-dimethylocta-2,4,6-triene",CC=CC=C(C)C(=CC)C,440.64,10,"[1, 6]",2,True,CH,alkene
8231,2-(2-propanoyloxyethoxy)ethyl propanoate,CCC(=O)OCCOCCOC(=O)CC,440.65,10,"[1, 6, 8]",3,True,CHO,ester
8232,1-tert-butylcyclohexene,CC(C)(C)C1=CCCCC1,440.65,10,"[1, 6]",2,True,CH,alkene
8233,"N,N-dipropylbutan-1-amine",CCCCN(CCC)CCC,440.84,10,"[1, 6, 7]",3,True,CHN,amine
8234,2-methyl-3-propan-2-ylhex-2-en-4-yne,CC#CC(=C(C)C)C(C)C,440.88,10,"[1, 6]",2,True,CH,alkene
8235,"2-methylidenetricyclo[4.2.1.03,9]nona-4,7-diene",C=C1C2C=CC3C2C1C=C3,441.43,10,"[1, 6]",2,True,CH,alkene
8236,5-ethenylbicyclo[2.2.2]oct-2-ene,C=CC1CC2CCC1C=C2,441.59,10,"[1, 6]",2,True,CH,alkene
8237,"3,3,6,6-tetramethylcyclohexa-1,4-diene",CC1(C=CC(C=C1)(C)C)C,442.08,10,"[1, 6]",2,True,CH,alkene
8238,3-methylbutylcyclopentane,CC(C)CCC1CCCC1,442.15,10,"[1, 6]",2,True,CH,alkane
8239,"2,2,5,5-tetramethylhexane-3,4-dione",CC(C)(C)C(=O)C(=O)C(C)(C)C,442.15,10,"[1, 6, 8]",3,True,CHO,ketone
8240,"9-methylidenetricyclo[4.2.1.02,5]non-7-ene",C=C1C2C=CC1C3C2CC3,442.27,10,"[1, 6]",2,True,CH,alkene
8241,3-(3-methylbutyl)cyclopentene,CC(C)CCC1CCC=C1,442.4,10,"[1, 6]",2,True,CH,alkene
8242,dec-5-ene,CCCCC=CCCCC,442.75,10,"[1, 6]",2,True,CH,alkene
8243,3-pentylcyclopentene,CCCCCC1CCC=C1,442.84,10,"[1, 6]",2,True,CH,alkene
8244,"tricyclo[5.2.1.02,6]deca-3,8-diene",C1C=CC2C1C3CC2C=C3,442.9367,10,"[1, 6]",2,True,CH,alkene
8245,"1,2-bis[(E)-prop-1-enyl]cyclobutane",C/C=C/C1C(CC1)/C=C/C,443.06,10,"[1, 6]",2,True,CH,alkene
8246,"9-methylidenetricyclo[4.2.1.02,5]nonane",C=C1C2CCC1C3C2CC3,443.11,10,"[1, 6]",2,True,CH,alkene
8247,"2-methyl-1,1-dipropoxypropane",CCCOC(C(C)C)OCCC,443.15,10,"[1, 6, 8]",3,True,CHO,ester
8248,"3,7,7-trimethylbicyclo[4.1.0]hept-3-ene",CC1=CCC2C(C1)C2(C)C,443.15,10,"[1, 6]",2,True,CH,alkene
8249,(E)-dec-2-ene,CCCCCCC/C=C/C,443.15,10,"[1, 6]",2,True,CH,alkene
8250,"3,6-dimethylocta-2,6-dien-4-yne",CC=C(C)C#CC(=CC)C,443.15,10,"[1, 6]",2,True,CH,alkene
8251,"1,4-diethylcyclohexane",CCC1CCC(CC1)CC,443.28,10,"[1, 6]",2,True,CH,alkane
8252,1-methylidene-4-prop-1-en-2-ylcyclohexane,CC(=C)C1CCC(=C)CC1,443.67,10,"[1, 6]",2,True,CH,alkene
8253,dec-4-ene,CCCCCC=CCCC,443.75,10,"[1, 6]",2,True,CH,alkene
8254,"1,1,3,3-tetramethylcyclohexane",CC1(CCCC(C1)(C)C)C,443.76,10,"[1, 6]",2,True,CH,alkane
8255,3-tert-butylcyclohexene,CC(C)(C)C1CCCC=C1,443.88,10,"[1, 6]",2,True,CH,alkene
8256,"(4E)-deca-1,4-diene",CCCCC/C=C/CC=C,443.9,10,"[1, 6]",2,True,CH,alkene
8257,2-methyl-2-[2-[(2-methylpropan-2-yl)oxy]ethoxy]propane,CC(C)(C)OCCOC(C)(C)C,444.15,10,"[1, 6, 8]",3,True,CHO,ester
8258,2-methyl-1-[1-(2-methylpropoxy)ethoxy]propane,CC(C)COC(C)OCC(C)C,444.45,10,"[1, 6, 8]",3,True,CHO,ester
8259,5-ethylbicyclo[2.2.2]oct-2-ene,CCC1CC2CCC1C=C2,444.91,10,"[1, 6]",2,True,CH,alkene
8260,N-butyl-N-ethylbutan-1-amine,CCCCN(CC)CCCC,445.65,10,"[1, 6, 7]",3,True,CHN,amine
8261,"tricyclo[3.3.2.02,8]deca-3,6,9-triene",C1=CC2C3C2C=CC1C=C3,445.7,10,"[1, 6]",2,True,CH,alkene
8262,"tricyclo[5.2.1.04,10]deca-2,5,8-triene",C1=CC2C=CC3C2C1C=C3,445.7,10,"[1, 6]",2,True,CH,alkene
8263,(1-cyclopropyl-2-methylprop-1-enyl)cyclopropane,CC(=C(C1CC1)C2CC2)C,445.8,10,"[1, 6]",2,True,CH,alkene
8264,"2,7,7-trimethylbicyclo[2.2.1]hept-2-ene",CC1=CC2CCC1C2(C)C,445.86,10,"[1, 6]",2,True,CH,alkene
8265,"deca-2,8-diyne",CC#CCCCCC#CC,446.4,10,"[1, 6]",2,True,CH,alkyne
8266,"deca-4,6-diyne",CCCC#CC#CCCC,446.4,10,"[1, 6]",2,True,CH,alkyne
8267,3-(3-methylbut-1-en-2-yloxy)pentane,CCC(CC)OC(=C)C(C)C,446.5,10,"[1, 6, 8]",3,True,CHO,ester
8268,"tricyclo[3.3.2.02,8]deca-3,6-diene",C1CC2C3C2C=CC1C=C3,446.54,10,"[1, 6]",2,True,CH,alkene
8269,"tricyclo[5.2.1.04,10]deca-2,5-diene",C1CC2C=CC3C2C1C=C3,446.54,10,"[1, 6]",2,True,CH,alkene
8270,"tricyclo[5.3.0.02,8]deca-3,5-diene",C1CC2C3C1C2C=CC=C3,446.54,10,"[1, 6]",2,True,CH,alkene
8271,3-(2-methylpropyl)cyclohexene,CC(C)CC1CCCC=C1,446.67,10,"[1, 6]",2,True,CH,alkene
8272,3-butan-2-ylcyclohexene,CCC(C)C1CCCC=C1,446.67,10,"[1, 6]",2,True,CH,alkene
8273,"1,5,5,6-tetramethylcyclohexa-1,3-diene",CC1C(=CC=CC1(C)C)C,446.82,10,"[1, 6]",2,True,CH,alkene
8274,3-(ethenoxymethyl)heptane,CCCCC(CC)COC=C,447.06,10,"[1, 6, 8]",3,True,CHO,ester
8275,"7,8-dimethylidenebicyclo[2.2.2]octa-2,5-diene",C=C1C2C=CC(C1=C)C=C2,447.06,10,"[1, 6]",2,True,CH,alkene
8276,3-butylcyclohexene,CCCCC1CCCC=C1,447.11,10,"[1, 6]",2,True,CH,alkene
8277,4-butylcyclohexene,CCCCC1CCC=CC1,447.11,10,"[1, 6]",2,True,CH,alkene
8278,1-methylidene-4-propan-2-ylcyclohexane,CC(C)C1CCC(=C)CC1,447.15,10,"[1, 6]",2,True,CH,alkene
8279,"tetracyclo[3.3.1.13,7.01,3]decane",C1C2CC34CC1CC3(C2)C4,447.3,10,"[1, 6]",2,True,CH,alkane
8280,"tricyclo[5.2.1.02,6]dec-8-ene",C1CC2C(C1)C3CC2C=C3,447.38,10,"[1, 6]",2,True,CH,alkene
8281,"tricyclo[5.2.1.02,6]dec-3-ene",C1CC2CC1C3C2C=CC3,447.38,10,"[1, 6]",2,True,CH,alkene
8282,"tricyclo[5.2.1.04,10]dec-2-ene",C1CC2C=CC3C2C1CC3,447.38,10,"[1, 6]",2,True,CH,alkene
8283,1-methyl-1-propan-2-ylcyclohexane,CC(C)C1(CCCCC1)C,447.75,10,"[1, 6]",2,True,CH,alkane
8284,"2-methyl-5-prop-1-en-2-ylcyclohexa-1,3-diene",CC1=CCC(C=C1)C(=C)C,447.81,10,"[1, 6]",2,True,CH,alkene
8285,"5,6-dimethylidenebicyclo[2.2.2]oct-2-ene",C=C1C2CCC(C1=C)C=C2,447.9,10,"[1, 6]",2,True,CH,alkene
8286,"2,4-dimethylidenebicyclo[3.2.1]oct-6-ene",C=C1CC(=C)C2CC1C=C2,447.9,10,"[1, 6]",2,True,CH,alkene
8287,1-methyl-2-prop-1-en-2-ylbenzene,CC1=CC=CC=C1C(=C)C,448.15,10,"[1, 6]",2,True,CH,alkene
8288,1-methyl-5-prop-1-en-2-ylcyclohexene,CC1=CCCC(C1)C(=C)C,448.15,10,"[1, 6]",2,True,CH,alkene
8289,"tricyclo[4.2.2.02,5]decane",C1CC2CCC1C3C2CC3,448.22,10,"[1, 6]",2,True,CH,alkane
8290,"tricyclo[6.2.0.03,6]decane",C1CC2C1CC3CCC3C2,448.22,10,"[1, 6]",2,True,CH,alkane
8291,adamantane,C1C2CC3CC1CC(C2)C3,448.22,10,"[1, 6]",2,True,CH,alkane
8292,"tricyclo[3.3.2.02,8]decane",C1CC2C3C2CCC1CC3,448.22,10,"[1, 6]",2,True,CH,alkane
8293,"tricyclo[7.1.0.04,6]decane",C1CC2CC2CCC3C1C3,448.22,10,"[1, 6]",2,True,CH,alkane
8294,"tricyclo[5.2.1.04,10]decane",C1CC2CCC3C2C1CC3,448.22,10,"[1, 6]",2,True,CH,alkane
8295,3-methyl-1-(2-methylbut-3-en-2-yloxy)but-2-ene,CC(=CCOC(C)(C)C=C)C,448.31,10,"[1, 6, 8]",3,True,CHO,ester
8296,"4-methyl-3a,4,7,7a-tetrahydro-1H-indene",CC1C=CCC2C1C=CC2,448.34,10,"[1, 6]",2,True,CH,alkene
8297,"2,3-dimethylidenebicyclo[2.2.2]octane",C=C1C2CCC(C1=C)CC2,448.74,10,"[1, 6]",2,True,CH,alkene
8298,"2,4-dimethylidenebicyclo[3.2.1]octane",C=C1CC(=C)C2CCC1C2,448.74,10,"[1, 6]",2,True,CH,alkene
8299,"7-propan-2-ylcyclohepta-1,3,5-triene",CC(C)C1C=CC=CC=C1,449.26,10,"[1, 6]",2,True,CH,alkene
8300,1-methyl-2-propan-2-ylbenzene,CC1=CC=CC=C1C(C)C,449.65,10,"[1, 6]",2,True,CH,aromatic
8301,"3-(1-methoxyethenyl)tricyclo[2.2.1.02,6]heptane",COC(=C)C1C2CC3C1C3C2,449.72,10,"[1, 6, 8]",3,True,CHO,ester
8302,1-methoxynonane,CCCCCCCCCOC,450.82,10,"[1, 6, 8]",3,True,CHO,ester
8303,1-butoxyhexane,CCCCCCOCCCC,450.82,10,"[1, 6, 8]",3,True,CHO,ester
8304,1-propoxyheptane,CCCCCCCOCCC,450.82,10,"[1, 6, 8]",3,True,CHO,ester
8305,"2,2-dimethyl-3-(3-methylidenepent-4-enyl)oxirane",CC1(C(O1)CCC(=C)C=C)C,450.9,10,"[1, 6, 8]",3,True,CHO,ester
8306,"7-propan-2-ylidenebicyclo[2.2.1]hepta-2,5-diene",CC(=C1C2C=CC1C=C2)C,450.99,10,"[1, 6]",2,True,CH,alkene
8307,2-[cyclohexyl(2-hydroxyethyl)amino]ethanol,C1CCC(CC1)N(CCO)CCO,451.15,10,"[1, 6, 7, 8]",4,True,CHON,alcohol
8308,"9-methylidenebicyclo[4.2.1]nona-2,4,7-triene",C=C1C2C=CC=CC1C=C2,451.33,10,"[1, 6]",2,True,CH,alkene
8309,"1,5,5-trimethyl-3-methylidenecyclohexene",CC1=CC(=C)CC(C1)(C)C,451.49,10,"[1, 6]",2,True,CH,alkene
8310,1-methyl-6-propan-2-ylcyclohexene,CC1=CCCCC1C(C)C,451.65,10,"[1, 6]",2,True,CH,alkene
8311,7-propan-2-ylidenebicyclo[2.2.1]hept-2-ene,CC(=C1C2CCC1C=C2)C,451.83,10,"[1, 6]",2,True,CH,alkene
8312,"spiro[bicyclo[2.2.2]octane-2,1'-cyclopropane]",C1CC2CCC1CC23CC3,453.13,10,"[1, 6]",2,True,CH,alkane
8313,9-methylidenebicyclo[4.2.1]nonane,C=C1C2CCCCC1CC2,453.85,10,"[1, 6]",2,True,CH,alkene
8314,"2,2,4-trimethylheptan-4-ol",CCCC(C)(CC(C)(C)C)O,454.15,10,"[1, 6, 8]",3,True,CHO,alcohol
8315,ethenyl 2-ethylhexanoate,CCCCC(CC)C(=O)OC=C,454.25,10,"[1, 6, 8]",3,True,CHO,ester
8316,3-methylbutylidenecyclopentane,CC(C)CC=C1CCCC1,454.55,10,"[1, 6]",2,True,CH,alkene
8317,"tricyclo[4.2.2.01,6]deca-2,4,7,9-tetraene",C1=CC23C=CC2(C=C1)C=C3,454.68,10,"[1, 6]",2,True,CH,alkene
8318,pentylidenecyclopentane,CCCCC=C1CCCC1,454.99,10,"[1, 6]",2,True,CH,alkene
8319,"4,7,7-trimethyl-6-oxabicyclo[3.2.1]oct-3-ene",CC1=CCC2CC1OC2(C)C,455.15,10,"[1, 6, 8]",3,True,CHO,ester
8320,"2,4,6-trimethylheptan-4-ol",CC(C)CC(C)(CC(C)C)O,455.15,10,"[1, 6, 8]",3,True,CHO,alcohol
8321,4-methyl-2-(2-methylprop-1-enyl)oxane,CC1CCOC(C1)C=C(C)C,455.15,10,"[1, 6, 8]",3,True,CHO,ester
8322,"2,3,4,4-tetramethylhexan-2-ol",CCC(C)(C)C(C)C(C)(C)O,456.0,10,"[1, 6, 8]",3,True,CHO,alcohol
8323,3-(dimethoxymethyl)heptane,CCCCC(CC)C(OC)OC,456.15,10,"[1, 6, 8]",3,True,CHO,ester
8324,1-(2-methylpropyl)cyclohexene,CC(C)CC1=CCCCC1,456.32,10,"[1, 6]",2,True,CH,alkene
8325,"tricyclo[4.3.1.01,6]deca-2,4-diene",C1CC23CC2(C1)C=CC=C3,456.36,10,"[1, 6]",2,True,CH,alkene
8326,"dispiro[2.0.24.43]deca-7,9-diene",C1CC12C=CC=CC23CC3,456.36,10,"[1, 6]",2,True,CH,alkene
8327,"dispiro[2.2.26.23]deca-4,9-diene",C1CC12C=CC3(CC3)C=C2,456.36,10,"[1, 6]",2,True,CH,alkene
8328,"dispiro[2.0.24.43]deca-1,5-diene",C1CCC2(C=C2)C3(C1)C=C3,456.36,10,"[1, 6]",2,True,CH,alkene
8329,"1,2,6,6-tetramethylcyclohexa-1,3-diene",CC1=C(C(CC=C1)(C)C)C,456.47,10,"[1, 6]",2,True,CH,alkene
8330,"tricyclo[4.3.1.01,6]dec-3-ene",C1CC23CC=CCC2(C1)C3,457.2,10,"[1, 6]",2,True,CH,alkene
8331,"tricyclo[4.2.2.01,6]dec-7-ene",C1CCC23CCC2(C1)C=C3,457.2,10,"[1, 6]",2,True,CH,alkene
8332,dispiro[2.0.24.43]dec-7-ene,C1CC2(CC2)C3(CC3)C=C1,457.2,10,"[1, 6]",2,True,CH,alkene
8333,"tricyclo[4.3.1.01,6]dec-2-ene",C1CC23CCC=CC2(C1)C3,457.2,10,"[1, 6]",2,True,CH,alkene
8334,3-cyclopent-2-en-1-ylcyclopentene,C1CC(C=C1)C2CCC=C2,457.28,10,"[1, 6]",2,True,CH,alkene
8335,"(3Z)-bicyclo[4.2.2]deca-3,7-diene",C1CC2C/C=C\CC1C=C2,457.28,10,"[1, 6]",2,True,CH,alkene
8336,"(2Z,6Z)-bicyclo[6.2.0]deca-2,6-diene",C1/C=C\C2C(/C=C\C1)CC2,457.28,10,"[1, 6]",2,True,CH,alkene
8337,"5,8,8-trimethyl-3-oxatricyclo[5.1.0.02,4]octane",CC1CC2C(C2(C)C)C3C1O3,457.53,10,"[1, 6, 8]",3,True,CHO,ester
8338,1-methyl-3-propan-2-ylidenecyclohexene,CC1=CC(=C(C)C)CCC1,457.65,10,"[1, 6]",2,True,CH,alkene
8339,6-methylheptan-3-yl acetate,CCC(CCC(C)C)OC(=O)C,457.65,10,"[1, 6, 8]",3,True,CHO,ester
8340,dec-2-yne,CCCCCCCC#CC,457.75,10,"[1, 6]",2,True,CH,alkyne
8341,dispiro[2.0.24.43]decane,C1CCC2(CC2)C3(C1)CC3,458.04,10,"[1, 6]",2,True,CH,alkane
8342,dispiro[2.2.26.23]decane,C1CC2(CCC13CC3)CC2,458.04,10,"[1, 6]",2,True,CH,alkane
8343,1-methyl-3-prop-1-en-2-ylbenzene,CC1=CC(=CC=C1)C(=C)C,458.15,10,"[1, 6]",2,True,CH,alkene
8344,1-methylidene-4-propan-2-ylidenecyclohexane,CC(=C1CCC(=C)CC1)C,458.3,10,"[1, 6]",2,True,CH,alkene
8345,"2,2,6,6-tetramethylcyclohexan-1-one",CC1(CCCC(C1=O)(C)C)C,458.65,10,"[1, 6, 8]",3,True,CHO,ketone
8346,2-methylbutyl 2-methylbutanoate,CCC(C)COC(=O)C(C)CC,458.65,10,"[1, 6, 8]",3,True,CHO,ester
8347,bicyclo[3.3.2]decane,C1CC2CCCC(C1)CC2,458.96,10,"[1, 6]",2,True,CH,alkane
8348,"1,2,3,3a,4,5,6,7,8,8a-decahydroazulene",C1CCC2CCCC2CC1,458.96,10,"[1, 6]",2,True,CH,alkane
8349,"2,2,3-trimethylheptan-3-ol",CCCCC(C)(C(C)(C)C)O,459.15,10,"[1, 6, 8]",3,True,CHO,alcohol
8350,(4-ethoxy-3-methoxyphenyl)methanol,CCOC1=C(C=C(C=C1)CO)OC,459.15,10,"[1, 6, 8]",3,True,CHO,ester
8351,5-(1-methoxyethenyl)bicyclo[2.2.1]hept-2-ene,COC(=C)C1CC2CC1C=C2,459.62,10,"[1, 6, 8]",3,True,CHO,ester
8352,1-ethoxyoctane,CCCCCCCCOCC,459.7,10,"[1, 6, 8]",3,True,CHO,ester
8353,"4-cyclopropylbuta-1,3-diynylcyclopropane",C1CC1C#CC#CC2CC2,459.88,10,"[1, 6]",2,True,CH,alkyne
8354,1-ethenoxyoctane,CCCCCCCCOC=C,460.0,10,"[1, 6, 8]",3,True,CHO,ester
8355,"4-ethyl-2,2-dimethylhexan-3-ol",CCC(CC)C(C(C)(C)C)O,460.15,10,"[1, 6, 8]",3,True,CHO,alcohol
8356,"4-methylidene-1-azatricyclo[3.3.1.13,7]decane",C=C1C2CC3CC1CN(C3)C2,460.22,10,"[1, 6, 7]",3,True,CHN,alkene
8357,2-(1-methoxyethenyl)bicyclo[2.2.1]heptane,COC(=C)C1CC2CCC1C2,460.46,10,"[1, 6, 8]",3,True,CHO,ester
8358,"3,7-dimethyloct-1-yn-3-ol",CC(C)CCCC(C)(C#C)O,460.65,10,"[1, 6, 8]",3,True,CHO,alkyne
8359,"2,2,4,4-tetramethylhexan-3-ol",CCC(C)(C)C(C(C)(C)C)O,460.65,10,"[1, 6, 8]",3,True,CHO,alcohol
8360,"2-ethynyl-2,6,6-trimethyloxane",CC1(CCCC(O1)(C)C#C)C,460.83,10,"[1, 6, 8]",3,True,CHO,ester
8361,"1,10-diazapentacyclo[5.4.1.02,6.03,10.04,8]dodecane",C1C2C3CN4C2C5C1C3CN5C4,460.96,10,"[1, 6, 7]",3,True,CHN,amine
8362,cyclopropylmethylbenzene,C1CC1CC2=CC=CC=C2,461.15,10,"[1, 6]",2,True,CH,aromatic
8363,1-methyl-2-propan-2-ylcyclohexene,CC1=C(CCCC1)C(C)C,461.3,10,"[1, 6]",2,True,CH,alkene
8364,2-octyloxirane,CCCCCCCCC1CO1,462.09,10,"[1, 6, 8]",3,True,CHO,ester
8365,"3,8,8-trimethyl-4-oxatricyclo[5.1.0.03,5]octane",CC1(C2C1CC3(C(C2)O3)C)C,462.44,10,"[1, 6, 8]",3,True,CHO,ester
8366,"3-ethyl-2,2,4-trimethylpentan-3-ol",CCC(C(C)C)(C(C)(C)C)O,462.65,10,"[1, 6, 8]",3,True,CHO,alcohol
8367,ethylcyclooctatetraene,CCC1=CC=CC=CC=C1,462.78,10,"[1, 6]",2,True,CH,alkene
8368,9-ethyl-9-azabicyclo[3.3.1]nonane,CCN1C2CCCC1CCC2,462.86,10,"[1, 6, 7]",3,True,CHN,amine
8369,4-propan-2-yl-1-azabicyclo[2.2.2]octane,CC(C)C12CCN(CC1)CC2,463.06,10,"[1, 6, 7]",3,True,CHN,amine
8370,"2,2-dimethyloctan-4-ol",CCCCC(CC(C)(C)C)O,463.15,10,"[1, 6, 8]",3,True,CHO,alcohol
8371,propan-2-ylidenecycloheptane,CC(=C1CCCCCC1)C,463.41,10,"[1, 6]",2,True,CH,alkene
8372,"3-(1-methoxyethylidene)tricyclo[2.2.1.02,6]heptane",CC(=C1C2CC3C1C3C2)OC,464.35,10,"[1, 6, 8]",3,True,CHO,ester
8373,1-[(E)-pent-2-en-3-yl]piperidine,CC/C(=C\C)/N1CCCCC1,464.83,10,"[1, 6, 7]",3,True,CHN,alkene
8374,"2,2,3,4-tetramethylhexan-3-ol",CCC(C)C(C)(C(C)(C)C)O,464.89743,10,"[1, 6, 8]",3,True,CHO,alcohol
8375,"tricyclo[5.2.1.02,6]deca-2,5,8-triene",C1C=C2C3CC(C2=C1)C=C3,465.0,10,"[1, 6]",2,True,CH,alkene
8376,"1,3,3-trimethylbicyclo[2.2.1]heptan-2-one",CC1(C2CCC(C2)(C1=O)C)C,465.15,10,"[1, 6, 8]",3,True,CHO,ketone
8377,"4,7-dimethyloctan-4-ol",CCCC(C)(CCC(C)C)O,465.15,10,"[1, 6, 8]",3,True,CHO,alcohol
8378,9-methoxy-9-oxononanoic acid,COC(=O)CCCCCCCC(=O)O,465.65,10,"[1, 6, 8]",3,True,CHO,carboxylic_acid
8379,2-[4-(2-hydroxyethoxy)phenoxy]ethanol,C1=CC(=CC=C1OCCO)OCCO,465.65,10,"[1, 6, 8]",3,True,CHO,ester
8380,"1,1,3-triethoxybut-2-ene",CCOC(C=C(C)OCC)OCC,465.65,10,"[1, 6, 8]",3,True,CHO,ester
8381,"1,2,3,4-tetramethyl-5-methylidenecyclopenta-1,3-diene",CC1=C(C(=C)C(=C1C)C)C,465.75,10,"[1, 6]",2,True,CH,alkene
8382,"5-butan-2-yl-2,2-dimethyloxolane",CCC(C)C1CCC(O1)(C)C,465.76,10,"[1, 6, 8]",3,True,CHO,ester
8383,"tricyclo[5.2.1.02,6]deca-2,5-diene",C1CC2CC1C3=CCC=C23,465.84,10,"[1, 6]",2,True,CH,alkene
8384,N-(2-methylpropyl)cyclohexanamine,CC(C)CNC1CCCCC1,466.15,10,"[1, 6, 7]",3,True,CHN,amine
8385,"2,5,6-trimethylheptan-2-ol",CC(C)C(C)CCC(C)(C)O,466.15,10,"[1, 6, 8]",3,True,CHO,alcohol
8386,3-ethyl-2-methylheptan-3-ol,CCCCC(CC)(C(C)C)O,466.15,10,"[1, 6, 8]",3,True,CHO,alcohol
8387,"tricyclo[5.2.1.02,6]decane",C1CC2C3CCC(C3)C2C1,466.15,10,"[1, 6]",2,True,CH,alkane
8388,"2-ethenyl-1,4-dimethylbenzene",CC1=CC(=C(C=C1)C)C=C,466.18,10,"[1, 6]",2,True,CH,alkene
8389,"1,2,3,4-tetramethyl-2,3-diazabicyclo[2.2.2]oct-5-ene",CC12CCC(C=C1)(N(N2C)C)C,466.4,10,"[1, 6, 7]",3,True,CHN,alkene
8390,"tricyclo[5.3.0.02,6]dec-1(7)-ene",C1CC2C(C1)C3=C2CCC3,466.68,10,"[1, 6]",2,True,CH,alkene
8391,2-methyl-2-(2-methylbutan-2-ylperoxy)butane,CCC(C)(C)OOC(C)(C)CC,466.78,10,"[1, 6, 8]",3,True,CHO,ester
8392,"1,3,3-trimethyl-6-azabicyclo[3.2.1]octane",CC1(CC2CC(C1)(CN2)C)C,467.15,10,"[1, 6, 7]",3,True,CHN,amine
8393,"2,7-dimethyloctan-3-ol",CC(C)CCCC(C(C)C)O,467.15,10,"[1, 6, 8]",3,True,CHO,alcohol
8394,"2-ethenyl-2,6,6-trimethyloxane",CC1(CCCC(O1)(C)C=C)C,467.39,10,"[1, 6, 8]",3,True,CHO,ester
8395,1-cyclopropyl-4-methylbenzene,CC1=CC=C(C=C1)C2CC2,467.4,10,"[1, 6]",2,True,CH,aromatic
8396,2-ethoxyethylbenzene,CCOCCC1=CC=CC=C1,467.65,10,"[1, 6, 8]",3,True,CHO,ester
8397,"2,2-diethoxy-N,N-diethylethanamine",CCN(CC)CC(OCC)OCC,467.65,10,"[1, 6, 7, 8]",4,True,CHON,ester
8398,"3,4,5,5-tetramethylhexan-3-ol",CCC(C)(C(C)C(C)(C)C)O,467.8,10,"[1, 6, 8]",3,True,CHO,alcohol
8399,ethylidenecyclooctane,CC=C1CCCCCCC1,467.8,10,"[1, 6]",2,True,CH,alkene
8400,"(1Z,5E)-cyclodeca-1,5-diene",C1CC/C=C\CC/C=C/C1,468.02,10,"[1, 6]",2,True,CH,alkene
8401,"(1Z,6Z)-cyclodeca-1,6-diene",C1C/C=C\CCC/C=C\C1,468.02,10,"[1, 6]",2,True,CH,alkene
8402,"(1E,6E)-cyclodeca-1,6-diene",C1C/C=C/CCC/C=C/C1,468.02,10,"[1, 6]",2,True,CH,alkene
8403,cyclodecene,C1CCCC/C=C\CCC1,468.15,10,"[1, 6]",2,True,CH,alkene
8404,"3,7-dimethyloctanoic acid",CC(C)CCCC(C)CC(=O)O,468.15,10,"[1, 6, 8]",3,True,CHO,alcohol
8405,"2-methyl-2,3-dihydro-1H-indene",CC1CC2=CC=CC=C2C1,468.15,10,"[1, 6]",2,True,CH,aromatic
8406,6-methylnon-5-en-4-one,CCCC(=CC(=O)CCC)C,468.15,10,"[1, 6, 8]",3,True,CHO,alkene
8407,"(7,7-dimethyl-1-bicyclo[2.2.1]heptanyl)methanamine",CC1(C2CCC1(CC2)CN)C,468.15,10,"[1, 6, 7]",3,True,CHN,amine
8408,"2,6-dimethyloctan-4-ol",CCC(C)CC(CC(C)C)O,468.15,10,"[1, 6, 8]",3,True,CHO,alcohol
8409,"1,1,2,2-tetraethoxyethane",CCOC(C(OCC)OCC)OCC,468.65,10,"[1, 6, 8]",3,True,CHO,ester
8410,"3,5,5-trimethylheptan-3-ol",CCC(C)(C)CC(C)(CC)O,468.8,10,"[1, 6, 8]",3,True,CHO,alcohol
8411,1-propan-2-ylazocane,CC(C)N1CCCCCCC1,468.89,10,"[1, 6, 7]",3,True,CHN,amine
8412,6-prop-1-en-2-yl-8-oxabicyclo[3.2.1]octane,CC(=C)C1CC2CCCC1O2,469.26,10,"[1, 6, 8]",3,True,CHO,ester
8413,"(1Z,5Z)-1,5-dimethylcycloocta-1,5-diene",C/C/1=C/CC/C(=C\CC1)/C,469.44,10,"[1, 6]",2,True,CH,alkene
8414,"N,N-dimethyl-1-(4-methylphenyl)methanamine",CC1=CC=C(C=C1)CN(C)C,469.65,10,"[1, 6, 7]",3,True,CHN,aromatic
8415,"3,3,5,5-tetramethylcyclohexan-1-one",CC1(CC(=O)CC(C1)(C)C)C,469.65,10,"[1, 6, 8]",3,True,CHO,ketone
8416,1-methyl-3-propan-2-yloxybenzene,CC1=CC(=CC=C1)OC(C)C,469.65,10,"[1, 6, 8]",3,True,CHO,ester
8417,"2,3,5,6-tetramethylidene-7-oxabicyclo[2.2.1]heptane",C=C1C2C(=C)C(=C)C(C1=C)O2,469.74,10,"[1, 6, 8]",3,True,CHO,ester
8418,4-methylnonan-2-one,CCCCCC(C)CC(=O)C,470.0,10,"[1, 6, 8]",3,True,CHO,ketone
8419,1-[2-[(2-methylpropan-2-yl)oxy]ethoxy]butane,CCCCOCCOC(C)(C)C,470.01,10,"[1, 6, 8]",3,True,CHO,ester
8420,8-methylnonanal,CC(C)CCCCCCC=O,470.15,10,"[1, 6, 8]",3,True,CHO,aldehyde
8421,"5-[(E)-but-2-en-2-yl]-2,2-dimethyloxolane",C/C=C(\C)/C1CCC(O1)(C)C,470.24,10,"[1, 6, 8]",3,True,CHO,ester
8422,"9-methoxybicyclo[4.2.1]nona-2,4-diene",COC1C2CCC1C=CC=C2,470.76,10,"[1, 6, 8]",3,True,CHO,ester
8423,"1,2,3,4-tetramethylbenzene",CC1=C(C(=C(C=C1)C)C)C,471.15,10,"[1, 6]",2,True,CH,aromatic
8424,"6,6-dimethylspiro[bicyclo[3.1.1]heptane-2,2'-oxirane]",CC1(C2CCC3(C1C2)CO3)C,471.38,10,"[1, 6, 8]",3,True,CHO,ester
8425,"3-methoxy-N,N-dimethylbicyclo[2.2.1]heptan-2-amine",CN(C)C1C2CCC(C2)C1OC,471.67,10,"[1, 6, 7, 8]",4,True,CHON,ester
8426,hexyl 2-methylpropanoate,CCCCCCOC(=O)C(C)C,472.15,10,"[1, 6, 8]",3,True,CHO,ester
8427,"3,4,5-trimethoxybenzamide",COC1=CC(=CC(=C1OC)OC)C(=O)N,472.15,10,"[1, 6, 7, 8]",4,True,CHON,ester
8428,"1,1-dimethoxyoctane",CCCCCCCC(OC)OC,472.8,10,"[1, 6, 8]",3,True,CHO,ester
8429,1-(1-ethoxyethoxy)hexane,CCCCCCOC(C)OCC,472.8,10,"[1, 6, 8]",3,True,CHO,ester
8430,"2,3,4,4-tetramethylhexan-3-ol",CCC(C)(C)C(C)(C(C)C)O,473.02342,10,"[1, 6, 8]",3,True,CHO,alcohol