,Name,SMILES,Tb,C Atom,Atom,Count Unique Atom,Pass Screen,Atom2,Func. Group
1462,"Benzeneacetaldehyde, 4-Methyl-",CC1=CC=C(C=C1)CC=O,494.65,9,"[1, 6, 8]",3,True,CHO,aromatic
1463,"3,5-Dimethylphenol",CC1=CC(=CC(=C1)O)C,494.84999999999997,8,"[1, 6, 8]",3,True,CHO,aromatic
1464,"1,2-Propanediol, 3-Ethoxy-",CCOCC(CO)O,495.15,5,"[1, 6, 8]",3,True,CHO,ester
1465,Valproic Acid,CCCC(CCC)C(=O)O,495.15,8,"[1, 6, 8]",3,True,CHO,alcohol
1466,"1,2-Propanedione, 1-Phenyl-",CC(=O)C(=O)C1=CC=CC=C1,495.15,9,"[1, 6, 8]",3,True,CHO,aromatic
1467,Heptanoic Acid,CCCCCCC(=O)O,495.34999999999997,7,"[1, 6, 8]",3,True,CHO,alcohol
1468,"Propanedioic Acid, 2-Propenyl-, Diethyl Ester",CCOC(=O)C(CC=C)C(=O)OCC,495.65,10,"[1, 6, 8]",3,True,CHO,ester
1469,Methyl Salicylate,COC(=O)C1=CC=CC=C1O,496.04999999999995,8,"[1, 6, 8]",3,True,CHO,ester
1470,"Benzenepropanal, 4-Methyl-",CC1=CC=C(C=C1)CCC=O,496.15,10,"[1, 6, 8]",3,True,CHO,aromatic
1471,O-t-Butylphenol,CC(C)(C)C1=CC=CC=C1O,496.15,10,"[1, 6, 8]",3,True,CHO,aromatic
1472,"Benzene, (butoxymethyl)-",CCCCOCC1=CC=CC=C1,496.15,11,"[1, 6, 8]",3,True,CHO,ester
1473,Di-n-Hexyl Ether,CCCCCCOCCCCCC,496.15,12,"[1, 6, 8]",3,True,CHO,ester
1474,"2,5-Furandione, 3,4-Dimethyl-",CC1=C(C(=O)OC1=O)C,496.15,6,"[1, 6, 8]",3,True,CHO,alkene
1475,Diethyl Maleate,CCOC(=O)/C=C\C(=O)OCC,496.15,8,"[1, 6, 8]",3,True,CHO,ester
1476,2-Hydroxy-4-Methylbenzaldehyde,CC1=CC(=C(C=C1)C=O)O,496.15,8,"[1, 6, 8]",3,True,CHO,aldehyde
1477,"1,1-Cyclobutanedicarboxylic Acid, Diethyl Ester",CCOC(=O)C1(CCC1)C(=O)OCC,497.15,10,"[1, 6, 8]",3,True,CHO,ester
1478,(+-)-Citronellol,CC(CCC=C(C)C)CCO,497.15,10,"[1, 6, 8]",3,True,CHO,alkene
1479,Methyl Decanoate,CCCCCCCCCC(=O)OC,497.15,11,"[1, 6, 8]",3,True,CHO,ester
1480,"Benzenemethanol, 2-Methyl-",CC1=CC=CC=C1CO,497.15,8,"[1, 6, 8]",3,True,CHO,aromatic
1481,Benzenepropanal,C1=CC=C(C=C1)CCC=O,497.15,9,"[1, 6, 8]",3,True,CHO,aromatic
1482,"Pentanoic Acid, 2-Acetyl-, Ethyl Ester",CCCC(C(=O)C)C(=O)OCC,497.15,9,"[1, 6, 8]",3,True,CHO,ester
1483,"2h-1-Benzopyran, 3,4-Dihydro-2-Methyl-",CC1CCC2=CC=CC=C2O1,497.65,10,"[1, 6, 8]",3,True,CHO,ester
1484,Dihydrocarveol,CC1CCC(CC1O)C(=C)C,497.65,10,"[1, 6, 8]",3,True,CHO,alkene
1485,"Butanoic Acid, Phenyl Ester",CCCC(=O)OC1=CC=CC=C1,498.15,10,"[1, 6, 8]",3,True,CHO,ester
1486,"2,6-Octadien-1-Ol, 3,7-Dimethyl-, (z)-",CC(=CCC/C(=C\CO)/C)C,498.15,10,"[1, 6, 8]",3,True,CHO,alkene
1487,6-Dodecanol,CCCCCCC(CCCCC)O,498.15,12,"[1, 6, 8]",3,True,CHO,alcohol
1488,Cekanoic C8 Acid,CC(C)CCCCC(=O)O,504.65,8,"[1, 6, 8]",3,True,CHO,alcohol
1489,"4-Nonanol, 2,6,8-Trimethyl-",CC(C)CC(C)CC(CC(C)C)O,498.54999999999995,12,"[1, 6, 8]",3,True,CHO,alcohol
1490,2-Isopropyl-6-Methylphenol,CC1=C(C(=CC=C1)C(C)C)O,498.65,10,"[1, 6, 8]",3,True,CHO,aromatic
1491,"Hexanoic Acid, 3-Methylbutyl Ester",CCCCCC(=O)OCCC(C)C,498.65,11,"[1, 6, 8]",3,True,CHO,ester
1492,"Butanoic Acid, Heptyl Ester",CCCCCCCOC(=O)CCC,498.95,11,"[1, 6, 8]",3,True,CHO,ester
1493,"2-Ethyl-2-Methyl-1,3-Propanediol",CCC(C)(CO)CO,498.95,6,"[1, 6, 8]",3,True,CHO,alcohol
1494,"2,4-Dimethylphenyl Acetate",CC1=CC(=C(C=C1)OC(=O)C)C,499.15,10,"[1, 6, 8]",3,True,CHO,ester
1495,"Hexanoic Acid, Pentyl Ester",CCCCCC(=O)OCCCCC,499.15,11,"[1, 6, 8]",3,True,CHO,ester
1496,Hept-6-Enoic Acid,C=CCCCCC(=O)O,499.15,7,"[1, 6, 8]",3,True,CHO,alkene
1497,P-Methylacetophenone,CC1=CC=C(C=C1)C(=O)C,499.15,9,"[1, 6, 8]",3,True,CHO,aromatic
1498,"2,3,6-Trimethylphenol",CC1=C(C(=C(C=C1)C)O)C,499.15,9,"[1, 6, 8]",3,True,CHO,aromatic
1499,Butyl Heptanoate,CCCCCCC(=O)OCCCC,499.34999999999997,11,"[1, 6, 8]",3,True,CHO,ester
1500,"Pentanoic Acid, Hexyl Ester",CCCCCCOC(=O)CCCC,499.45,11,"[1, 6, 8]",3,True,CHO,ester
1501,"Octanoic Acid, Propyl Ester",CCCCCCCC(=O)OCCC,499.54999999999995,11,"[1, 6, 8]",3,True,CHO,ester
1502,Hept-2-Enoic Acid,CCCC/C=C/C(=O)O,499.65,7,"[1, 6, 8]",3,True,CHO,alkene
1503,"Benzoic Acid, 2-Methyl-, Ethyl Ester",CCOC(=O)C1=CC=CC=C1C,500.15,10,"[1, 6, 8]",3,True,CHO,ester
1504,"Benzeneacetic Acid, Ethyl Ester",CCOC(=O)CC1=CC=CC=C1,500.15,10,"[1, 6, 8]",3,True,CHO,ester
1505,Citral,CC(=CCC/C(=C/C=O)/C)C,500.15,10,"[1, 6, 8]",3,True,CHO,alkene
1506,"Pentanoic Acid, Anhydride",CCCCC(=O)OC(=O)CCCC,500.15,10,"[1, 6, 8]",3,True,CHO,ether
1507,Undecan-5-One,CCCCCCC(=O)CCCC,500.15,11,"[1, 6, 8]",3,True,CHO,ketone
1508,3-Undecanone,CCCCCCCCC(=O)CC,500.15,11,"[1, 6, 8]",3,True,CHO,ketone
1509,Menthyl Acetate,CC1CCC(C(C1)OC(=O)C)C(C)C,500.15,12,"[1, 6, 8]",3,True,CHO,ester
1510,6-Hydroxy-Hexan-2-One,CC(=O)CCCCO,500.15,6,"[1, 6, 8]",3,True,CHO,alcohol
1511,"3,4-Dimethylphenol",CC1=C(C=C(C=C1)O)C,500.15,8,"[1, 6, 8]",3,True,CHO,aromatic
1512,2-Propoxy-Phenol,CCCOC1=CC=CC=C1O,500.15,9,"[1, 6, 8]",3,True,CHO,ester
1513,Ethyl Nonanoate,CCCCCCCCC(=O)OCC,500.15,11,"[1, 6, 8]",3,True,CHO,ester
1514,"Ethanone, 1-(2,4-Dimethylphenyl)-",CC1=CC(=C(C=C1)C(=O)C)C,501.15,10,"[1, 6, 8]",3,True,CHO,aromatic
1515,Dihydrosafrole,CCCC1=CC2=C(C=C1)OCO2,501.15,10,"[1, 6, 8]",3,True,CHO,ester
1516,O-Sec-Butylphenol,CCC(C)C1=CC=CC=C1O,501.15,10,"[1, 6, 8]",3,True,CHO,aromatic
1517,"Pentanoic Acid, 2-Furanylmethyl Ester",CCCCC(=O)OCC1=CC=CO1,501.15,10,"[1, 6, 8]",3,True,CHO,ester
1518,"2-Cyclohexen-1-Ol, 2-Methyl-5-(1-Methylethenyl)-",CC1=CCC(CC1O)C(=C)C,501.15,10,"[1, 6, 8]",3,True,CHO,alkene
1519,"Benzeneacetic Acid, .alpha.-Ethyl-, Methyl Ester",CCC(C1=CC=CC=C1)C(=O)OC,501.15,11,"[1, 6, 8]",3,True,CHO,ester
1520,6-Undecanone,CCCCCC(=O)CCCCC,501.15,11,"[1, 6, 8]",3,True,CHO,ketone
1521,"Propanoic Acid, Octyl Ester",CCCCCCCCOC(=O)CC,501.15,11,"[1, 6, 8]",3,True,CHO,ester
1522,6-Undecanol,CCCCCC(CCCCC)O,501.15,11,"[1, 6, 8]",3,True,CHO,alcohol
1523,"Cyclohexanol, 2-Phenyl-",C1CCC(C(C1)C2=CC=CC=C2)O,501.15,12,"[1, 6, 8]",3,True,CHO,aromatic
1524,Cyclopentaneacetic Acid,C1CCC(C1)CC(=O)O,501.15,7,"[1, 6, 8]",3,True,CHO,alcohol
1525,"Hexanoic Acid, 2-Ethyl-",CCCCC(CC)C(=O)O,501.15,8,"[1, 6, 8]",3,True,CHO,alcohol
1526,M-Isopropylphenol,CC(C)C1=CC(=CC=C1)O,501.15,9,"[1, 6, 8]",3,True,CHO,aromatic
1527,3-Propylphenol,CCCC1=CC(=CC=C1)O,501.15,9,"[1, 6, 8]",3,True,CHO,aromatic
1528,"Butanedioic Acid, Methylene-, Diethyl Ester",CCOC(=O)CC(=C)C(=O)OCC,501.15,9,"[1, 6, 8]",3,True,CHO,ester
1529,4-Oxo-Pentanoic Acid Isobutyl Ester,CC(C)COC(=O)CCC(=O)C,501.15,9,"[1, 6, 8]",3,True,CHO,ester
1530,"1-Butanone, 1-Phenyl-",CCCC(=O)C1=CC=CC=C1,501.65,10,"[1, 6, 8]",3,True,CHO,aromatic
1531,"Phenol, 4-Methyl-2-(1-Methylethyl)-",CC1=CC(=C(C=C1)O)C(C)C,501.65,10,"[1, 6, 8]",3,True,CHO,aromatic
1532,Oxalic Acid Diisobutyl Ester,CC(C)COC(=O)C(=O)OCC(C)C,502.15,10,"[1, 6, 8]",3,True,CHO,ester
1533,"Ethanol, 2-((2-Ethylhexyl)oxy)-",CCCCC(CC)COCCO,502.15,10,"[1, 6, 8]",3,True,CHO,ester
1534,Undecan-5-Ol,CCCCCCC(CCCC)O,502.15,11,"[1, 6, 8]",3,True,CHO,alcohol
1535,3-Furan-2-Yl-Propionic Acid,C1=COC(=C1)CCC(=O)O,502.15,7,"[1, 6, 8]",3,True,CHO,aromatic
1536,"1,4-Butanediol, Diacetate",CC(=O)OCCCCOC(=O)C,502.15,8,"[1, 6, 8]",3,True,CHO,ester
1537,"Benzene, 1-Butoxy-4-Methyl-",CCCCOC1=CC=C(C=C1)C,502.65,11,"[1, 6, 8]",3,True,CHO,ester
1538,"2-Propanone, 1-Phenoxy-",CC(=O)COC1=CC=CC=C1,502.65,9,"[1, 6, 8]",3,True,CHO,ester
1539,1-Phenyl-2-Butanone,CCC(=O)CC1=CC=CC=C1,503.15,10,"[1, 6, 8]",3,True,CHO,aromatic
1540,2-Methyl-4-Isopropylphenol,CC1=C(C=CC(=C1)C(C)C)O,503.15,10,"[1, 6, 8]",3,True,CHO,aromatic
1541,"Benzene, (2-Ethoxyethoxy)-",CCOCCOC1=CC=CC=C1,503.15,10,"[1, 6, 8]",3,True,CHO,ester
1542,2-Decenal,CCCCCCC/C=C/C=O,503.15,10,"[1, 6, 8]",3,True,CHO,alkene
1543,Geraniol,CC(=CCC/C(=C/CO)/C)C,503.15,10,"[1, 6, 8]",3,True,CHO,alkene
1544,"Phenol, 2-(1,1-Dimethylethyl)-6-Methyl-",CC1=C(C(=CC=C1)C(C)(C)C)O,503.15,11,"[1, 6, 8]",3,True,CHO,aromatic
1545,"Propanedioic Acid, Diethyl-, Diethyl Ester",CCC(CC)(C(=O)OCC)C(=O)OCC,503.15,11,"[1, 6, 8]",3,True,CHO,ester
1546,P-Isopropylphenol,CC(C)C1=CC=C(C=C1)O,503.15,9,"[1, 6, 8]",3,True,CHO,aromatic
1547,1-(2-Butoxyethoxy)-2-Propanol,CCCCOCCOCC(C)O,503.15,9,"[1, 6, 8]",3,True,CHO,ester
1548,"2,3,5-Trimethylphenol",CC1=CC(=C(C(=C1)O)C)C,503.65,9,"[1, 6, 8]",3,True,CHO,aromatic
1549,Carvone,CC1=CCC(CC1=O)C(=C)C,504.15,10,"[1, 6, 8]",3,True,CHO,alkene
1550,2-Furancarboxylic Acid,C1=COC(=C1)C(=O)O,504.15,5,"[1, 6, 8]",3,True,CHO,aromatic
1551,Diethylene Glycol Mono-n-Butyl Ether,CCCCOCCOCCO,504.15,8,"[1, 6, 8]",3,True,CHO,ester
1552,"Benzaldehyde, 3-Methoxy-",COC1=CC=CC(=C1)C=O,504.15,8,"[1, 6, 8]",3,True,CHO,ester
1553,1-Decanol,CCCCCCCCCCO,504.25,10,"[1, 6, 8]",3,True,CHO,alcohol
1554,Undecanone,CCCCCCCCCC(=O)C,504.65,11,"[1, 6, 8]",3,True,CHO,ketone
1555,2-Allyl-6-Methylphenol,CC1=C(C(=CC=C1)CC=C)O,505.15,10,"[1, 6, 8]",3,True,CHO,alkene
1556,4-Methylbenzoic Acid Ethyl Ester,CCOC(=O)C1=CC=C(C=C1)C,505.15,10,"[1, 6, 8]",3,True,CHO,ester
1557,"2,2,4-Trimethyl-1,3-Pentanediol",CC(C)C(C(C)(C)CO)O,505.15,8,"[1, 6, 8]",3,True,CHO,alcohol
1558,"2,4,5-Trimethylphenol",CC1=CC(=C(C=C1C)O)C,505.15,9,"[1, 6, 8]",3,True,CHO,aromatic
1559,"2,4-Dimethylbenzyl Alcohol",CC1=CC(=C(C=C1)CO)C,505.15,9,"[1, 6, 8]",3,True,CHO,aromatic
1560,"Propanedioic Acid, Acetyl-, Diethyl Ester",CCOC(=O)C(C(=O)C)C(=O)OCC,505.15,9,"[1, 6, 8]",3,True,CHO,ester
1561,"Ethanone, 1-(2,5-Dimethylphenyl)-",CC1=CC(=C(C=C1)C)C(=O)C,505.65,10,"[1, 6, 8]",3,True,CHO,aromatic
1562,"Benzoic Acid, 2,4-Dimethyl-, Methyl Ester",CC1=CC(=C(C=C1)C(=O)OC)C,505.65,10,"[1, 6, 8]",3,True,CHO,ester
1563,Cyclohexanecarboxylic Acid,C1CCC(CC1)C(=O)O,505.65,7,"[1, 6, 8]",3,True,CHO,alcohol
1564,Ethyl 2-Hydroxybenzoate,CCOC(=O)C1=CC=CC=C1O,505.65,9,"[1, 6, 8]",3,True,CHO,ester
1565,4-Propylphenol,CCCC1=CC=C(C=C1)O,505.75,9,"[1, 6, 8]",3,True,CHO,aromatic
1566,"1,1'-Oxydi-2-Propanol",CC(COCC(C)O)O,505.95,6,"[1, 6, 8]",3,True,CHO,ester
1567,Thymol,CC1=CC(=C(C=C1)C(C)C)O,506.15,10,"[1, 6, 8]",3,True,CHO,aromatic
1568,Piperitone,CC1=CC(=O)C(CC1)C(C)C,506.15,10,"[1, 6, 8]",3,True,CHO,alkene
1569,Furan-2-Carboxylic Acid Butyl Ester,CCCCOC(=O)C1=CC=CO1,506.15,9,"[1, 6, 8]",3,True,CHO,ester
1570,"2-Butanone, 4-Phenyl-",CC(=O)CCC1=CC=CC=C1,506.65,10,"[1, 6, 8]",3,True,CHO,aromatic
1571,Ethyl M-Methylbenzoate,CCOC(=O)C1=CC=CC(=C1)C,507.15,10,"[1, 6, 8]",3,True,CHO,ester
1572,"1,3-Propanediol, 2-Methyl-2-Propyl-",CCCC(C)(CO)CO,507.15,7,"[1, 6, 8]",3,True,CHO,alcohol
1573,1-Methylcyclohexanecarboxylic Acid,CC1(CCCCC1)C(=O)O,507.15,8,"[1, 6, 8]",3,True,CHO,alcohol
1574,"2(3h)-Furanone, 5-Butyldihydro-",CCCCC1CCC(=O)O1,507.15,8,"[1, 6, 8]",3,True,CHO,ester
1575,"2-Cyclopenten-1-One, 3-Phenyl-",C1CC(=O)C=C1C2=CC=CC=C2,507.34999999999997,11,"[1, 6, 8]",3,True,CHO,alkene
1576,Safrole,C=CCC1=CC2=C(C=C1)OCO2,507.65,10,"[1, 6, 8]",3,True,CHO,ester
1577,3-Cyclohexene-1-Carboxylic Acid,C1CC(CC=C1)C(=O)O,507.65,7,"[1, 6, 8]",3,True,CHO,alkene
1578,Anethole,C/C=C/C1=CC=C(C=C1)OC,508.15,10,"[1, 6, 8]",3,True,CHO,ester
1579,2-Butylphenol,CCCCC1=CC=CC=C1O,508.15,10,"[1, 6, 8]",3,True,CHO,aromatic
1580,"1,3-Diethoxybenzene",CCOC1=CC(=CC=C1)OCC,508.15,10,"[1, 6, 8]",3,True,CHO,ester
1581,Neryl Acetate,CC(=CCC/C(=C\COC(=O)C)/C)C,508.15,12,"[1, 6, 8]",3,True,CHO,ester
1582,"1,4-Butanediol",C(CCO)CO,508.15,4,"[1, 6, 8]",3,True,CHO,alcohol
1583,"2,3-Dihydroxy-Benzaldehyde",C1=CC(=C(C(=C1)O)O)C=O,508.15,7,"[1, 6, 8]",3,True,CHO,aldehyde
1584,"Benzoic Acid, 2-Hydroxy-3-Methyl-, Methyl Ester",CC1=C(C(=CC=C1)C(=O)OC)O,508.15,9,"[1, 6, 8]",3,True,CHO,ester
1585,3-Phenylpropanol,C1=CC=C(C=C1)CCCO,508.15,9,"[1, 6, 8]",3,True,CHO,aromatic
1586,"Benzene, 1,2,3-Trimethoxy-",COC1=C(C(=CC=C1)OC)OC,508.15,9,"[1, 6, 8]",3,True,CHO,ester
1587,"Benzaldehyde, 4-(1-Methylethyl)-",CC(C)C1=CC=C(C=C1)C=O,508.65,10,"[1, 6, 8]",3,True,CHO,aromatic
1588,3-Ethyl-5-Methylphenol,CCC1=CC(=CC(=C1)C)O,508.84999999999997,9,"[1, 6, 8]",3,True,CHO,aromatic
1589,1-(4-Methylphenyl)-1-Propanone,CCC(=O)C1=CC=C(C=C1)C,509.15,10,"[1, 6, 8]",3,True,CHO,aromatic
1590,9-Decen-1-Ol,C=CCCCCCCCCO,509.15,10,"[1, 6, 8]",3,True,CHO,alkene
1591,"Phenol, 2,3,4-Trimethyl-",CC1=C(C(=C(C=C1)O)C)C,509.15,9,"[1, 6, 8]",3,True,CHO,aromatic
1592,"1-Butanone, 3-Methyl-1-Phenyl-",CC(C)CC(=O)C1=CC=CC=C1,509.65,11,"[1, 6, 8]",3,True,CHO,aromatic
1593,"Phenol, 4-Ethyl-2-Methoxy-",CCC1=CC(=C(C=C1)O)OC,509.65,9,"[1, 6, 8]",3,True,CHO,ester
1594,Diethyl Glutarate,CCOC(=O)CCCC(=O)OCC,509.65,9,"[1, 6, 8]",3,True,CHO,ester
1595,"2(1h)-Naphthalenone, 3,4-Dihydro-",C1CC2=CC=CC=C2CC1=O,510.15,10,"[1, 6, 8]",3,True,CHO,aromatic
1596,2-Allyl-4-Methyl-Phenol,CC1=CC(=C(C=C1)O)CC=C,510.15,10,"[1, 6, 8]",3,True,CHO,alkene
1597,2-(tert-Butyl)-4-Methylphenol,CC1=CC(=C(C=C1)O)C(C)(C)C,510.15,11,"[1, 6, 8]",3,True,CHO,aromatic
1598,"2-Pentenedioic Acid, Diethyl Ester",CCOC(=O)C/C=C/C(=O)OCC,510.15,9,"[1, 6, 8]",3,True,CHO,ester
1599,"Propanedioic Acid, Butyl-, Diethyl Ester",CCCCC(C(=O)OCC)C(=O)OCC,510.65,11,"[1, 6, 8]",3,True,CHO,ester
1600,"Pentanoic Acid, 4-Oxo-, Butyl Ester",CCCCOC(=O)CCC(=O)C,510.65,9,"[1, 6, 8]",3,True,CHO,ester
1601,"Phenol, 2-Methyl-5-(1-Methylethyl)-",CC1=C(C=C(C=C1)C(C)C)O,510.84999999999997,10,"[1, 6, 8]",3,True,CHO,aromatic
1602,"Benzoic Acid, 2-Hydroxy-, 1-Methylethyl Ester",CC(C)OC(=O)C1=CC=CC=C1O,511.15,10,"[1, 6, 8]",3,True,CHO,ester
1603,2-Phenylethyl Propionate,CCC(=O)OCCC1=CC=CC=C1,511.15,11,"[1, 6, 8]",3,True,CHO,ester
1604,"Benzene, 1-(1,1-Dimethylethyl)-4-Methoxy-",CC(C)(C)C1=CC=C(C=C1)OC,511.15,11,"[1, 6, 8]",3,True,CHO,ester
1605,"2-Butyne-1,4-Diol",C(C#CCO)O,511.15,4,"[1, 6, 8]",3,True,CHO,alkyne
1606,4-(2-Propenyl)phenol,C=CCC1=CC=C(C=C1)O,511.15,9,"[1, 6, 8]",3,True,CHO,alkene
1607,"Benzaldehyde, 2,4,6-Trimethyl-",CC1=CC(=C(C(=C1)C)C=O)C,511.65,10,"[1, 6, 8]",3,True,CHO,aromatic
1608,"Benzoic Acid, 2-Hydroxy-, Propyl Ester",CCCOC(=O)C1=CC=CC=C1O,512.15,10,"[1, 6, 8]",3,True,CHO,ester
1609,2-Hydroxy-4-Phenylbutane,CC(CCC1=CC=CC=C1)O,512.15,10,"[1, 6, 8]",3,True,CHO,aromatic
1610,"Butanoic Acid, Phenylmethyl Ester",CCCC(=O)OCC1=CC=CC=C1,512.15,11,"[1, 6, 8]",3,True,CHO,ester
1611,"1,5-Pentanediol",C(CCO)CCO,512.15,5,"[1, 6, 8]",3,True,CHO,alcohol
1612,Octanoic Acid,CCCCCCCC(=O)O,512.15,8,"[1, 6, 8]",3,True,CHO,alcohol
1613,"Phenol, 2,3,4,6-Tetramethyl-",CC1=CC(=C(C(=C1C)C)O)C,513.15,10,"[1, 6, 8]",3,True,CHO,aromatic
1614,Perillaldehyde,CC(=C)C1CCC(=CC1)C=O,513.15,10,"[1, 6, 8]",3,True,CHO,alkene
1615,"Phenol, 3-(1,1-Dimethylethyl)-",CC(C)(C)C1=CC(=CC=C1)O,513.15,10,"[1, 6, 8]",3,True,CHO,aromatic
1616,"Butanoic Acid, 1,2-Ethanediyl Ester",CCCC(=O)OCCOC(=O)CCC,513.15,10,"[1, 6, 8]",3,True,CHO,ester
1617,"Benzene, (hexyloxy)-",CCCCCCOC1=CC=CC=C1,513.15,12,"[1, 6, 8]",3,True,CHO,ester
1618,Geraniol Acetate,CC(=CCC/C(=C/COC(=O)C)/C)C,513.15,12,"[1, 6, 8]",3,True,CHO,ester
1619,3-Hydroxybenzaldehyde,C1=CC(=CC(=C1)O)C=O,513.15,7,"[1, 6, 8]",3,True,CHO,aldehyde
1620,O-Hydroxyphenylacetic Acid,C1=CC=C(C(=C1)CC(=O)O)O,513.15,8,"[1, 6, 8]",3,True,CHO,carboxylic_acid
1621,M-Methoxyacetophenone,CC(=O)C1=CC(=CC=C1)OC,513.15,9,"[1, 6, 8]",3,True,CHO,ester
1622,3-Phenoxy-Propionic Acid,C1=CC=C(C=C1)OCCC(=O)O,513.15,9,"[1, 6, 8]",3,True,CHO,carboxylic_acid
1623,Butyl Octanoate,CCCCCCCC(=O)OCCCC,513.65,12,"[1, 6, 8]",3,True,CHO,ester
1624,"2,2-Diethyl-1,3-Propanediol",CCC(CC)(CO)CO,513.65,7,"[1, 6, 8]",3,True,CHO,alcohol
1625,P-(sec-Butyl)phenol,CCC(C)C1=CC=C(C=C1)O,514.15,10,"[1, 6, 8]",3,True,CHO,aromatic
1626,Dibutyl Oxalate,CCCCOC(=O)C(=O)OCCCC,514.15,10,"[1, 6, 8]",3,True,CHO,ester
1627,Hydroxycitronellal,CC(CCCC(C)(C)O)CC=O,514.15,10,"[1, 6, 8]",3,True,CHO,alcohol
1628,"Ethanone, 1-(2,4,6-Trimethylphenyl)-",CC1=CC(=C(C(=C1)C)C(=O)C)C,514.15,11,"[1, 6, 8]",3,True,CHO,aromatic
1629,1-Cyclohexene-1-Carboxylic Acid,C1CCC(=CC1)C(=O)O,514.15,7,"[1, 6, 8]",3,True,CHO,alkene
1630,"1,2-Benzenediol, 3-Methyl-",CC1=C(C(=CC=C1)O)O,514.15,7,"[1, 6, 8]",3,True,CHO,aromatic
1631,1-Phenoxy-2-Propanol,CC(COC1=CC=CC=C1)O,514.3499999999999,9,"[1, 6, 8]",3,True,CHO,ester
1632,Ethyl Decanoate,CCCCCCCCCC(=O)OCC,514.65,12,"[1, 6, 8]",3,True,CHO,ester
1633,"Benzoic Acid, 2-Methylpropyl Ester",CC(C)COC(=O)C1=CC=CC=C1,515.15,11,"[1, 6, 8]",3,True,CHO,ester
1634,Propylene Carbonate,CC1COC(=O)O1,515.15,4,"[1, 6, 8]",3,True,CHO,ester
1635,Dowanol Tpm,CC(CO)OC(C)COC(C)COC,515.55,10,"[1, 6, 8]",3,True,CHO,ester
1636,"Cyclohexane, 1,1'-Oxybis-",C1CCC(CC1)OC2CCCCC2,515.65,12,"[1, 6, 8]",3,True,CHO,ester
1637,1-Undecanol,CCCCCCCCCCCO,516.15,11,"[1, 6, 8]",3,True,CHO,alcohol
1638,2-Hydroxy-4-Methyl-Benzoic Acid Methyl Ester,CC1=CC(=C(C=C1)C(=O)OC)O,516.15,9,"[1, 6, 8]",3,True,CHO,ester
1639,"1h-Inden-1-One, 2,3-Dihydro-",C1CC(=O)C2=CC=CC=C21,516.15,9,"[1, 6, 8]",3,True,CHO,aromatic
1640,"Benzaldehyde, 2-Methoxy-",COC1=CC=CC=C1C=O,516.65,8,"[1, 6, 8]",3,True,CHO,ester
1641,"Benzeneethanol, 2-Methyl-",CC1=CC=CC=C1CCO,516.65,9,"[1, 6, 8]",3,True,CHO,aromatic
1642,"1-Cyclohexene-1-Methanol, 4-(1-Methylethenyl)-",CC(=C)C1CCC(=CC1)CO,517.15,10,"[1, 6, 8]",3,True,CHO,alkene
1643,Decyl Acetate,CCCCCCCCCCOC(=O)C,517.15,12,"[1, 6, 8]",3,True,CHO,ester
1644,M-Methoxyphenol,COC1=CC=CC(=C1)O,517.15,7,"[1, 6, 8]",3,True,CHO,ester
1645,"2-Ethyl-1,3-Hexandiol",CCCC(C(CC)CO)O,517.15,8,"[1, 6, 8]",3,True,CHO,alcohol
1646,"Benzene, 1,3-Dimethoxy-5-Methyl-",CC1=CC(=CC(=C1)OC)OC,517.15,9,"[1, 6, 8]",3,True,CHO,ester
1647,Texanol,CC(C)C(C(C)(C)COC(=O)C(C)C)O,518.65,12,"[1, 6, 8]",3,True,CHO,ester
1648,"Butanoic Acid, Octyl Ester",CCCCCCCCOC(=O)CCC,517.25,12,"[1, 6, 8]",3,True,CHO,ester
1649,"Benzoic Acid, 2-Hydroxy-5-Methyl-, Methyl Ester",CC1=CC(=C(C=C1)O)C(=O)OC,517.65,9,"[1, 6, 8]",3,True,CHO,ester
1650,"Benzeneethanol, 4-Methyl-",CC1=CC=C(C=C1)CCO,517.65,9,"[1, 6, 8]",3,True,CHO,aromatic
1651,Diethylene Glycol Monobutyl Ether Acetate,CCCCOCCOCCOC(=O)C,518.15,10,"[1, 6, 8]",3,True,CHO,ester
1652,"1-Pentanone, 1-Phenyl-",CCCCC(=O)C1=CC=CC=C1,518.15,11,"[1, 6, 8]",3,True,CHO,aromatic
1653,"Phenol, 5-Methyl-2-(1-Methylethyl)-, Acetate",CC1=CC(=C(C=C1)C(C)C)OC(=O)C,518.15,12,"[1, 6, 8]",3,True,CHO,ester
1654,"Butanoic Acid, 3-Methyl-, Phenylmethyl Ester",CC(C)CC(=O)OCC1=CC=CC=C1,518.15,12,"[1, 6, 8]",3,True,CHO,ester
1655,"2h-Pyran-2-One, 4,6-Dimethyl-",CC1=CC(=O)OC(=C1)C,518.15,7,"[1, 6, 8]",3,True,CHO,aromatic
1656,2-Phenoxyethanol,C1=CC=C(C=C1)OCCO,518.15,8,"[1, 6, 8]",3,True,CHO,ester
1657,Cyclohexylacetic Acid,C1CCC(CC1)CC(=O)O,518.15,8,"[1, 6, 8]",3,True,CHO,alcohol
1658,"Ethanone, 2-Methoxy-1-Phenyl-",COCC(=O)C1=CC=CC=C1,518.15,9,"[1, 6, 8]",3,True,CHO,ester
1659,"Ethanone, 1-(2-Hydroxy-4-Methylphenyl)-",CC1=CC(=C(C=C1)C(=O)C)O,518.15,9,"[1, 6, 8]",3,True,CHO,ketone
1660,Methyl Phenoxyacetate,COC(=O)COC1=CC=CC=C1,518.15,9,"[1, 6, 8]",3,True,CHO,ester
1661,"Pentanoic Acid, Heptyl Ester",CCCCCCCOC(=O)CCCC,518.3499999999999,12,"[1, 6, 8]",3,True,CHO,ester
1662,"Heptanoic Acid, Pentyl Ester",CCCCCCC(=O)OCCCCC,518.55,12,"[1, 6, 8]",3,True,CHO,ester
1663,Catechol,C1=CC=C(C(=C1)O)O,518.65,6,"[1, 6, 8]",3,True,CHO,aromatic
1664,"Benzaldehyde, 3-Ethoxy-",CCOC1=CC=CC(=C1)C=O,518.65,9,"[1, 6, 8]",3,True,CHO,ester
1665,Diethylene Glycol,C(COCCO)O,518.95,4,"[1, 6, 8]",3,True,CHO,ester
1666,"Benzene, 1,4-Diethoxy-",CCOC1=CC=C(C=C1)OCC,519.15,10,"[1, 6, 8]",3,True,CHO,ester
1667,"Hexanoic Acid, Hexyl Ester",CCCCCCOC(=O)CCCCC,519.15,12,"[1, 6, 8]",3,True,CHO,ester
1668,"1,4-Benzenedicarboxaldehyde",C1=CC(=CC=C1C=O)C=O,519.15,8,"[1, 6, 8]",3,True,CHO,aromatic
1669,3-Phenyl-2-Propenal,C1=CC=C(C=C1)/C=C/C=O,519.15,9,"[1, 6, 8]",3,True,CHO,alkene
1670,"Ethanone, 1-(3,4-Dimethylphenyl)-",CC1=C(C=C(C=C1)C(=O)C)C,519.65,10,"[1, 6, 8]",3,True,CHO,aromatic
1671,"Ethanone, 1-(2,4,5-Trimethylphenyl)-",CC1=CC(=C(C=C1C)C(=O)C)C,519.65,11,"[1, 6, 8]",3,True,CHO,aromatic
1672,Acetic Acid 5-Isopropyl-2-Methyl-Phenyl Ester,CC1=C(C=C(C=C1)C(C)C)OC(=O)C,519.65,12,"[1, 6, 8]",3,True,CHO,ester
1673,Methyl Decyl Ketone,CCCCCCCCCCC(=O)C,519.65,12,"[1, 6, 8]",3,True,CHO,ketone
1674,P-Ethoxyphenol,CCOC1=CC=C(C=C1)O,519.65,8,"[1, 6, 8]",3,True,CHO,ester
1675,"Benzoic Acid, 2-Methoxy-, Methyl Ester",COC1=CC=CC=C1C(=O)OC,519.65,9,"[1, 6, 8]",3,True,CHO,ester
1676,"1,3-Dioxane, 4-Phenyl-",C1COCOC1C2=CC=CC=C2,520.15,10,"[1, 6, 8]",3,True,CHO,ester
1677,"Phenol, 2,3,5,6-Tetramethyl-",CC1=CC(=C(C(=C1C)O)C)C,520.15,10,"[1, 6, 8]",3,True,CHO,aromatic