,Name,SMILES,Tb,C Atom,Atom,Count Unique Atom,Pass Screen,Atom2,Func. Group
1678,"Benzeneacetic Acid, 2-Methylpropyl Ester",CC(C)COC(=O)CC1=CC=CC=C1,520.15,12,"[1, 6, 8]",3,True,CHO,ester
1679,"2-Butenoic Acid, Anhydride",C/C=C/C(=O)OC(=O)/C=C/C,520.15,8,"[1, 6, 8]",3,True,CHO,alkene
1680,2-Hydroxy-4-Methoxybenzaldehyde,COC1=CC(=C(C=C1)C=O)O,520.65,8,"[1, 6, 8]",3,True,CHO,ester
1681,P-Butylphenol,CCCCC1=CC=C(C=C1)O,521.15,10,"[1, 6, 8]",3,True,CHO,aromatic
1682,3-Butylphenol,CCCCC1=CC(=CC=C1)O,521.15,10,"[1, 6, 8]",3,True,CHO,aromatic
1683,"Phenol, 4-(1,1-Dimethylethyl)-2,6-Dimethyl-",CC1=CC(=CC(=C1O)C)C(C)(C)C,521.15,12,"[1, 6, 8]",3,True,CHO,aromatic
1684,"10-Undecenoic Acid, Methyl Ester",COC(=O)CCCCCCCCC=C,521.15,12,"[1, 6, 8]",3,True,CHO,ester
1685,"1,3-Dioxolan-2-One",C1COC(=O)O1,521.15,3,"[1, 6, 8]",3,True,CHO,ester
1686,P-Anisaldehyde,COC1=CC=C(C=C1)C=O,521.15,8,"[1, 6, 8]",3,True,CHO,ester
1687,"Benzaldehyde, 2-Ethoxy-",CCOC1=CC=CC=C1C=O,521.15,9,"[1, 6, 8]",3,True,CHO,ester
1688,3-Methoxy-Benzoic Acid Methyl Ester,COC1=CC=CC(=C1)C(=O)OC,521.15,9,"[1, 6, 8]",3,True,CHO,ester
1689,Undec-9-En-1-Ol,CC=CCCCCCCCCO,521.65,11,"[1, 6, 8]",3,True,CHO,alkene
1690,"Benzenemethanol, 4-(1-Methylethyl)-",CC(C)C1=CC=C(C=C1)CO,522.15,10,"[1, 6, 8]",3,True,CHO,aromatic
1691,"2-(1,1-Dimethylethyl)-4,6-Dimethylphenol",CC1=CC(=C(C(=C1)C(C)(C)C)O)C,522.15,12,"[1, 6, 8]",3,True,CHO,aromatic
1692,O-Methoxybenzyl Alcohol,COC1=CC=CC=C1CO,522.15,8,"[1, 6, 8]",3,True,CHO,ester
1693,3h-Benzofuran-2-One,C1C2=CC=CC=C2OC1=O,522.15,8,"[1, 6, 8]",3,True,CHO,ester
1694,"Benzaldehyde, 4-Ethoxy-",CCOC1=CC=C(C=C1)C=O,522.15,9,"[1, 6, 8]",3,True,CHO,ester
1695,Benzoic Acid,C1=CC=C(C=C1)C(=O)O,522.3499999999999,7,"[1, 6, 8]",3,True,CHO,aromatic
1696,"Benzenepropanol, Formate",C1=CC=C(C=C1)CCCOC=O,523.15,10,"[1, 6, 8]",3,True,CHO,ester
1697,Decaprenoic Acid,CC(=CCC/C(=C/C(=O)O)/C)C,523.15,10,"[1, 6, 8]",3,True,CHO,alkene
1698,Tripropylene Glycol Methyl Ether,CC(CO)OCC(C)OCC(C)OC,523.15,10,"[1, 6, 8]",3,True,CHO,ester
1699,10-Undecen-1-Ol,C=CCCCCCCCCCO,523.15,11,"[1, 6, 8]",3,True,CHO,alkene
1700,"Propanoic Acid, 2-Methyl-, 2-Phenylethyl Ester",CC(C)C(=O)OCCC1=CC=CC=C1,523.15,12,"[1, 6, 8]",3,True,CHO,ester
1701,"Pentanedioic Acid, 3-Oxo-, Diethyl Ester",CCOC(=O)CC(=O)CC(=O)OCC,523.15,9,"[1, 6, 8]",3,True,CHO,ester
1702,Butyl Benzoate,CCCCOC(=O)C1=CC=CC=C1,523.45,11,"[1, 6, 8]",3,True,CHO,ester
1703,4-Pentylphenol,CCCCCC1=CC=C(C=C1)O,523.65,11,"[1, 6, 8]",3,True,CHO,aromatic
1704,"Butanedioic Acid, Dipropyl Ester",CCCOC(=O)CCC(=O)OCCC,523.95,10,"[1, 6, 8]",3,True,CHO,ester
1705,"Butanoic Acid, 2-Phenoxyethyl Ester",CCCC(=O)OCCOC1=CC=CC=C1,524.15,12,"[1, 6, 8]",3,True,CHO,ester
1706,"1,2-Benzenediol, 4-Methyl-",CC1=CC(=C(C=C1)O)O,524.15,7,"[1, 6, 8]",3,True,CHO,aromatic
1707,"Gamma-2,6-Dimethylpyrone",CC1=CC(=O)C=C(O1)C,524.15,7,"[1, 6, 8]",3,True,CHO,aromatic
1708,1-p-Tolyl-Butan-1-One,CCCC(=O)C1=CC=C(C=C1)C,524.65,11,"[1, 6, 8]",3,True,CHO,aromatic
1709,"Propanedioic Acid, Dibutyl Ester",CCCCOC(=O)CC(=O)OCCCC,524.65,11,"[1, 6, 8]",3,True,CHO,ester
1710,"2-Propenal, 2-Methyl-3-Phenyl-",C/C(=C\C1=CC=CC=C1)/C=O,524.75,10,"[1, 6, 8]",3,True,CHO,alkene
1711,"2-Propen-1-Ol, 3-Phenyl-, Formate",C1=CC=C(C=C1)/C=C/COC=O,525.15,10,"[1, 6, 8]",3,True,CHO,ester
1712,2-Dodecanol,CCCCCCCCCCC(C)O,525.15,12,"[1, 6, 8]",3,True,CHO,alcohol
1713,P-Hydroxybenzyl Alcohol,C1=CC(=CC=C1CO)O,525.15,7,"[1, 6, 8]",3,True,CHO,aromatic
1714,(3-Methoxy-Phenyl)-Methanol,COC1=CC=CC(=C1)CO,525.15,8,"[1, 6, 8]",3,True,CHO,ester
1715,Isosafrole,C/C=C/C1=CC2=C(C=C1)OCO2,526.15,10,"[1, 6, 8]",3,True,CHO,ester
1716,"1,3-Dioxane, 2-Phenyl-",C1COC(OC1)C2=CC=CC=C2,526.15,10,"[1, 6, 8]",3,True,CHO,ester
1717,2-Ethoxycarbonyl-Malonic Acid Diethyl Ester,CCOC(=O)C(C(=O)OCC)C(=O)OCC,526.15,10,"[1, 6, 8]",3,True,CHO,ester
1718,P-Methoxyphenol,COC1=CC=C(C=C1)O,526.15,7,"[1, 6, 8]",3,True,CHO,ester
1719,5-Indanol,C1CC2=C(C1)C=C(C=C2)O,526.15,9,"[1, 6, 8]",3,True,CHO,aromatic
1720,P-Isopropylacetophenone,CC(C)C1=CC=C(C=C1)C(=O)C,527.15,11,"[1, 6, 8]",3,True,CHO,aromatic
1721,Diethyl Pimelate,CCOC(=O)CCCCCC(=O)OCC,527.15,11,"[1, 6, 8]",3,True,CHO,ester
1722,Nonanoic Acid,CCCCCCCCC(=O)O,527.65,9,"[1, 6, 8]",3,True,CHO,alcohol
1723,Methyleugenol,COC1=C(C=C(C=C1)CC=C)OC,527.8499999999999,11,"[1, 6, 8]",3,True,CHO,ester
1724,Eugenol,COC1=C(C=CC(=C1)CC=C)O,528.15,10,"[1, 6, 8]",3,True,CHO,ester
1725,"Butanedioic Acid, Acetyl-, Diethyl Ester",CCOC(=O)CC(C(=O)C)C(=O)OCC,528.15,10,"[1, 6, 8]",3,True,CHO,ester
1726,(4-Methoxy-Phenyl)-Acetaldehyde,COC1=CC=C(C=C1)CC=O,528.65,9,"[1, 6, 8]",3,True,CHO,ester
1727,"Benzene, 1,3,5-Trimethoxy-",COC1=CC(=CC(=C1)OC)OC,528.65,9,"[1, 6, 8]",3,True,CHO,ester
1728,Ethoxytriethylene Glycol,CCOCCOCCOCCO,528.95,8,"[1, 6, 8]",3,True,CHO,ester
1729,"2,6-Dipropyl-Phenol",CCCC1=C(C(=CC=C1)CCC)O,529.15,12,"[1, 6, 8]",3,True,CHO,aromatic
1730,"Phenol, 2,6-Bis(1-Methylethyl)-",CC(C)C1=C(C(=CC=C1)C(C)C)O,529.15,12,"[1, 6, 8]",3,True,CHO,aromatic
1731,"Butanedioic Acid, Bis(1-Methylpropyl) Ester",CCC(C)OC(=O)CCC(=O)OC(C)CC,529.15,12,"[1, 6, 8]",3,True,CHO,ester
1732,Diethylene Glycol Dibutyl Ether,CCCCOCCOCCOCCCC,529.15,12,"[1, 6, 8]",3,True,CHO,ester
1733,Ethylene Glycol Monobenzyl Ether,C1=CC=C(C=C1)COCCO,529.15,9,"[1, 6, 8]",3,True,CHO,ester
1734,"P-Anisic Acid, Methyl Ester",COC1=CC=C(C=C1)C(=O)OC,529.15,9,"[1, 6, 8]",3,True,CHO,ester
1735,"Benzeneacetic Acid, .alpha.-Oxo-, Ethyl Ester",CCOC(=O)C(=O)C1=CC=CC=C1,529.65,10,"[1, 6, 8]",3,True,CHO,ester
1736,P-Methoxyacetophenone,CC(=O)C1=CC=C(C=C1)OC,531.15,9,"[1, 6, 8]",3,True,CHO,ester
1737,Diphenyl Ether,C1=CC=C(C=C1)OC2=CC=CC=C2,531.15,12,"[1, 6, 8]",3,True,CHO,ester
1738,1-(3-Methoxy-Phenyl)-Propan-1-One,CCC(=O)C1=CC(=CC=C1)OC,532.15,10,"[1, 6, 8]",3,True,CHO,ester
1739,Dimethyl Hexahydroterephthalate,COC(=O)C1CCC(CC1)C(=O)OC,532.15,10,"[1, 6, 8]",3,True,CHO,ester
1740,Dodecanol,CCCCCCCCCCCCO,532.15,12,"[1, 6, 8]",3,True,CHO,alcohol
1741,"1,2,3-Propanetriol, Diacetate",CC(=O)OCC(CO)OC(=O)C,532.15,7,"[1, 6, 8]",3,True,CHO,ester
1742,O-Toluic Acid,CC1=CC=CC=C1C(=O)O,532.15,8,"[1, 6, 8]",3,True,CHO,aromatic
1743,Triacetin,CC(=O)OCC(COC(=O)C)OC(=O)C,532.15,9,"[1, 6, 8]",3,True,CHO,ester
1744,P-Methoxybenzyl Alcohol,COC1=CC=C(C=C1)CO,532.25,8,"[1, 6, 8]",3,True,CHO,ester
1745,Cyclobutyl-Phenyl-Methanone,C1CC(C1)C(=O)C2=CC=CC=C2,533.15,11,"[1, 6, 8]",3,True,CHO,aromatic
1746,Diglycidyl Ether,C1C(O1)COCC2CO2,533.15,6,"[1, 6, 8]",3,True,CHO,ester
1747,"Cinnamic Acid, Methyl Ester",COC(=O)/C=C/C1=CC=CC=C1,533.55,10,"[1, 6, 8]",3,True,CHO,ester
1748,"Benzoic Acid, 3-Methoxy-, Ethyl Ester",CCOC(=O)C1=CC(=CC=C1)OC,533.65,10,"[1, 6, 8]",3,True,CHO,ester
1749,Dipropyl Glutarate,CCCOC(=O)CCCC(=O)OCCC,533.75,11,"[1, 6, 8]",3,True,CHO,ester
1750,Methyl Styryl Ketone,CC(=O)/C=C/C1=CC=CC=C1,534.15,10,"[1, 6, 8]",3,True,CHO,alkene
1751,"Benzoic Acid, 2-Methoxy-, Ethyl Ester",CCOC(=O)C1=CC=CC=C1OC,534.15,10,"[1, 6, 8]",3,True,CHO,ester
1752,"Benzoic Acid, 2-Hydroxy-, 2-Methylpropyl Ester",CC(C)COC(=O)C1=CC=CC=C1O,534.15,11,"[1, 6, 8]",3,True,CHO,ester
1753,"Benzene, (cyclohexyloxy)-",C1CCC(CC1)OC2=CC=CC=C2,534.15,12,"[1, 6, 8]",3,True,CHO,ester
1754,"1-Butanol, 3-Methyl-, Benzoate",CC(C)CCOC(=O)C1=CC=CC=C1,534.15,12,"[1, 6, 8]",3,True,CHO,ester
1755,Succinic Anhydride,C1CC(=O)OC1=O,534.15,4,"[1, 6, 8]",3,True,CHO,ether
1756,"2,6-Dimethoxyphenol",COC1=C(C(=CC=C1)OC)O,534.15,8,"[1, 6, 8]",3,True,CHO,ester
1757,Alpha-Phenylpropionic Acid,CC(C1=CC=CC=C1)C(=O)O,534.15,9,"[1, 6, 8]",3,True,CHO,aromatic
1758,"1,3-Butanedione, 1-Phenyl-",CC(=O)CC(=O)C1=CC=CC=C1,534.65,10,"[1, 6, 8]",3,True,CHO,aromatic
1759,"1,7-Heptanediol",C(CCCO)CCCO,535.15,7,"[1, 6, 8]",3,True,CHO,alcohol
1760,"1,3-Propanediol, 2-Butyl-2-Ethyl-",CCCCC(CC)(CO)CO,535.15,9,"[1, 6, 8]",3,True,CHO,alcohol
1761,P-Tert-Amylphenol,CCC(C)(C)C1=CC=C(C=C1)O,535.65,11,"[1, 6, 8]",3,True,CHO,aromatic
1762,Indalone,CCCCOC(=O)C1=CC(=O)CC(O1)(C)C,536.15,12,"[1, 6, 8]",3,True,CHO,ester
1763,Piperonal,C1OC2=C(O1)C=C(C=C2)C=O,536.15,8,"[1, 6, 8]",3,True,CHO,ester
1764,"Benzaldehyde, 3-Ethoxy-2-Hydroxy-",CCOC1=CC=CC(=C1O)C=O,536.65,9,"[1, 6, 8]",3,True,CHO,ester
1765,"Phenol, 4-(1,1-Dimethylethyl)-2,5-Dimethyl-",CC1=CC(=C(C=C1O)C)C(C)(C)C,537.15,12,"[1, 6, 8]",3,True,CHO,aromatic
1766,"1,3-Benzenediol, 2-Methyl-",CC1=C(C=CC=C1O)O,537.15,7,"[1, 6, 8]",3,True,CHO,aromatic
1767,"1,7-Octanediol, 3,7-Dimethyl-",CC(CCCC(C)(C)O)CCO,538.15,10,"[1, 6, 8]",3,True,CHO,alcohol
1768,Phenyl-Propynoic Acid Ethyl Ester,CCOC(=O)C#CC1=CC=CC=C1,538.15,11,"[1, 6, 8]",3,True,CHO,ester
1769,"Acetic Acid, Cinnamyl Ester",CC(=O)OC/C=C/C1=CC=CC=C1,538.15,11,"[1, 6, 8]",3,True,CHO,ester
1770,"1-Hexanone, 1-Phenyl-",CCCCCC(=O)C1=CC=CC=C1,538.15,12,"[1, 6, 8]",3,True,CHO,aromatic
1771,"Cyclohexanone, 2-(1-Cyclohexen-1-Yl)-",C1CCC(=CC1)C2CCCCC2=O,538.15,12,"[1, 6, 8]",3,True,CHO,alkene
1772,"2,5-Tetrahydrofurandimethanol",C1CC(OC1CO)CO,538.15,6,"[1, 6, 8]",3,True,CHO,ester
1773,P-Methylphenylacetic Acid,CC1=CC=C(C=C1)CC(=O)O,538.15,9,"[1, 6, 8]",3,True,CHO,aromatic
1774,Phenylacetic Acid,C1=CC=C(C=C1)CC(=O)O,538.65,8,"[1, 6, 8]",3,True,CHO,aromatic
1775,O-Vanillin,COC1=CC=CC(=C1O)C=O,538.65,8,"[1, 6, 8]",3,True,CHO,ester
1776,"1-Naphthalenol, 5,6,7,8-Tetrahydro-",C1CCC2=C(C1)C=CC=C2O,539.15,10,"[1, 6, 8]",3,True,CHO,aromatic
1777,2-Methoxy-4-(1-Propenyl)phenol,C/C=C/C1=CC(=C(C=C1)O)OC,539.15,10,"[1, 6, 8]",3,True,CHO,ester
1778,"Phenol, 2,3,4,5-Tetramethyl-",CC1=CC(=C(C(=C1C)C)C)O,539.15,10,"[1, 6, 8]",3,True,CHO,aromatic
1779,2-Phenoxypropionic Acid,CC(C(=O)O)OC1=CC=CC=C1,539.15,9,"[1, 6, 8]",3,True,CHO,carboxylic_acid
1780,"Phenol, 2-Methoxy-6-(1-Propenyl)-",CC=CC1=C(C(=CC=C1)OC)O,540.65,10,"[1, 6, 8]",3,True,CHO,ester
1781,"2-Propanone, 1-(4-Methoxyphenyl)-",CC(=O)CC1=CC=C(C=C1)OC,541.15,10,"[1, 6, 8]",3,True,CHO,ester
1782,"Octanedioic Acid, Dimethyl Ester",COC(=O)CCCCCCC(=O)OC,541.15,10,"[1, 6, 8]",3,True,CHO,ester
1783,"Benzoic Acid, 2,4-Dimethyl-",CC1=CC(=C(C=C1)C(=O)O)C,541.15,9,"[1, 6, 8]",3,True,CHO,aromatic
1784,"1,3-Benzenediol, 4-Methyl-",CC1=C(C=C(C=C1)O)O,541.65,7,"[1, 6, 8]",3,True,CHO,aromatic
1785,Decanoic Acid,CCCCCCCCCC(=O)O,541.8499999999999,10,"[1, 6, 8]",3,True,CHO,alcohol
1786,"Naphthalene, 1-Methoxy-",COC1=CC=CC2=CC=CC=C21,542.15,11,"[1, 6, 8]",3,True,CHO,ester
1787,"Benzoic Acid, 4-Methoxy-, Ethyl Ester",CCOC(=O)C1=CC=C(C=C1)OC,542.65,10,"[1, 6, 8]",3,True,CHO,ester
1788,"Ethanone, 2-(acetyloxy)-1-Phenyl-",CC(=O)OCC(=O)C1=CC=CC=C1,543.15,10,"[1, 6, 8]",3,True,CHO,ester
1789,"Benzenemethanol, 4-Methoxy-, Acetate",CC(=O)OCC1=CC=C(C=C1)OC,543.15,10,"[1, 6, 8]",3,True,CHO,ester
1790,Eugenyl Formate,COC1=C(C=CC(=C1)CC=C)OC=O,543.15,11,"[1, 6, 8]",3,True,CHO,ester
1791,"Benzoic Acid, 2-Hydroxy-, Pentyl Ester",CCCCCOC(=O)C1=CC=CC=C1O,543.15,12,"[1, 6, 8]",3,True,CHO,ester
1792,Dehydroacetic Acid,CC1=CC(=O)C(C(=O)O1)C(=O)C,543.15,8,"[1, 6, 8]",3,True,CHO,ester
1793,"Benzaldehyde, 2,5-Dimethoxy-",COC1=CC(=C(C=C1)OC)C=O,543.15,9,"[1, 6, 8]",3,True,CHO,ester
1794,"Benzene, 1,2-Dimethoxy-4-(1-Propenyl)-",C/C=C/C1=CC(=C(C=C1)OC)OC,543.65,11,"[1, 6, 8]",3,True,CHO,ester
1795,"Benzeneacetic Acid, .alpha.-Ethyl-",CCC(C1=CC=CC=C1)C(=O)O,544.15,10,"[1, 6, 8]",3,True,CHO,aromatic
1796,"Cinnamic Acid, Ethyl Ester",CCOC(=O)/C=C/C1=CC=CC=C1,544.15,11,"[1, 6, 8]",3,True,CHO,ester
1797,"Benzoic Acid, 2-Hydroxy-, Butyl Ester",CCCCOC(=O)C1=CC=CC=C1O,544.15,11,"[1, 6, 8]",3,True,CHO,ester
1798,4-Isopropylcatechol,CC(C)C1=CC(=C(C=C1)O)O,544.15,9,"[1, 6, 8]",3,True,CHO,aromatic
1799,Tripropylene Glycol,CC(CO)OCC(C)OCC(C)O,544.15,9,"[1, 6, 8]",3,True,CHO,ester
1800,"1,4-Benzenediol, 2-Methyl-",CC1=C(C=CC(=C1)O)O,545.15,7,"[1, 6, 8]",3,True,CHO,aromatic
1801,"2h-1-Benzopyran-2-One, 3,4-Dihydro-",C1CC(=O)OC2=CC=CC=C21,545.15,9,"[1, 6, 8]",3,True,CHO,ester
1802,2-Tert-Butylhydroquinone,CC(C)(C)C1=C(C=CC(=C1)O)O,546.15,10,"[1, 6, 8]",3,True,CHO,aromatic
1803,"1,2-Ethanediol, 1-Phenyl-",C1=CC=C(C=C1)C(CO)O,546.15,8,"[1, 6, 8]",3,True,CHO,aromatic
1804,"Naphthalene, 2-Methoxy-",COC1=CC2=CC=CC=C2C=C1,547.15,11,"[1, 6, 8]",3,True,CHO,ester
1805,"Benzoic Acid, 3,4,5-Trimethoxy-, Methyl Ester",COC1=CC(=CC(=C1OC)OC)C(=O)OC,547.65,11,"[1, 6, 8]",3,True,CHO,ester
1806,"Butanedioic Acid, Dibutyl Ester",CCCCOC(=O)CCC(=O)OCCCC,547.65,12,"[1, 6, 8]",3,True,CHO,ester
1807,"Hexanoic Acid, 5-Oxo-",CC(=O)CCCC(=O)O,547.65,6,"[1, 6, 8]",3,True,CHO,carboxylic_acid
1808,"2,6-Dimethylbenzoic Acid",CC1=C(C(=CC=C1)C)C(=O)O,547.65,9,"[1, 6, 8]",3,True,CHO,aromatic
1809,"Tartaric Acid, Diisopropyl Ester",CC(C)OC(=O)C(C(C(=O)OC(C)C)O)O,548.15,10,"[1, 6, 8]",3,True,CHO,ester
1810,Ethyl 4-Ethoxybenzoate,CCOC1=CC=C(C=C1)C(=O)OCC,548.15,11,"[1, 6, 8]",3,True,CHO,ester
1811,Undecylenic Acid,C=CCCCCCCCCC(=O)O,548.15,11,"[1, 6, 8]",3,True,CHO,alkene
1812,"2,5,8,11,14-Pentaoxapentadecane",COCCOCCOCCOCCOC,548.45,10,"[1, 6, 8]",3,True,CHO,ester
1813,"2-Naphthalenol, 5,6,7,8-Tetrahydro-",C1CCC2=C(C1)C=CC(=C2)O,548.65,10,"[1, 6, 8]",3,True,CHO,aromatic
1814,"2-Benzofurancarboxylic Acid, Ethyl Ester",CCOC(=O)C1=CC2=CC=CC=C2O1,549.15,11,"[1, 6, 8]",3,True,CHO,ester
1815,Pentaerythritol,C(C(CO)(CO)CO)O,549.15,5,"[1, 6, 8]",3,True,CHO,alcohol
1816,"4,6-Dimethylresorcinol",CC1=CC(=C(C=C1O)O)C,549.15,8,"[1, 6, 8]",3,True,CHO,aromatic
1817,Myristicin,COC1=CC(=CC2=C1OCO2)CC=C,549.65,11,"[1, 6, 8]",3,True,CHO,ester
1818,P-Methoxybenzoic Acid,COC1=CC=C(C=C1)C(=O)O,549.65,8,"[1, 6, 8]",3,True,CHO,carboxylic_acid
1819,Cyclohexanepropanoic Acid,C1CCC(CC1)CCC(=O)O,549.65,9,"[1, 6, 8]",3,True,CHO,alcohol
1820,Triethylene Glycol Butyl Ether,CCCCOCCOCCOCCO,551.15,10,"[1, 6, 8]",3,True,CHO,ester
1821,"Benzoic Acid, 2-Hydroxy-, 3-Methylbutyl Ester",CC(C)CCOC(=O)C1=CC=CC=C1O,551.15,12,"[1, 6, 8]",3,True,CHO,ester
1822,"2,5-Dimethyl-1,3-Benzenediol",CC1=CC(=C(C(=C1)O)C)O,551.65,8,"[1, 6, 8]",3,True,CHO,aromatic
1823,"Benzaldehyde, 3,4-Diethoxy-",CCOC1=C(C=C(C=C1)C=O)OCC,552.15,11,"[1, 6, 8]",3,True,CHO,ester
1824,Beta-Phenylpropionic Acid,C1=CC=C(C=C1)CCC(=O)O,552.95,9,"[1, 6, 8]",3,True,CHO,aromatic
1825,Divinyl Ether,C=COC=C,301.45,4,"[1, 6, 8]",3,True,CHO,ester
1826,Undecanoic Acid,CCCCCCCCCCC(=O)O,553.15,11,"[1, 6, 8]",3,True,CHO,alcohol
1827,Resorcinol,C1=CC(=CC(=C1)O)O,553.15,6,"[1, 6, 8]",3,True,CHO,aromatic
1828,1-Monobutyrin,CCCC(=O)OCC(CO)O,553.15,7,"[1, 6, 8]",3,True,CHO,ester
1829,"Tartaric Acid, Diethyl Ester",CCOC(=O)C(C(C(=O)OCC)O)O,553.15,8,"[1, 6, 8]",3,True,CHO,ester
1830,Eugenyl Acetate,CC(=O)OC1=C(C=C(C=C1)CC=C)OC,554.15,12,"[1, 6, 8]",3,True,CHO,ester
1831,Dibutyl Maleate,CCCCOC(=O)/C=C\C(=O)OCCCC,554.15,12,"[1, 6, 8]",3,True,CHO,ester
1832,Methyl M-Hydroxybenzoate,COC(=O)C1=CC(=CC=C1)O,554.15,8,"[1, 6, 8]",3,True,CHO,ester
1833,"Benzaldehyde, 3,4-Dimethoxy-",COC1=C(C=C(C=C1)C=O)OC,554.15,9,"[1, 6, 8]",3,True,CHO,ester
1834,Dimethyl Isophthalate,COC(=O)C1=CC(=CC=C1)C(=O)OC,555.15,10,"[1, 6, 8]",3,True,CHO,ester
1835,"Naphthalene, 2-Ethoxy-",CCOC1=CC2=CC=CC=C2C=C1,555.15,12,"[1, 6, 8]",3,True,CHO,ester
1836,Diethyl Suberate,CCOC(=O)CCCCCCC(=O)OCC,555.75,12,"[1, 6, 8]",3,True,CHO,ester
1837,"Benzoic Acid, 3,4-Dimethoxy-, Methyl Ester",COC1=C(C=C(C=C1)C(=O)OC)OC,556.15,10,"[1, 6, 8]",3,True,CHO,ester
1838,"1,3-Propanediol, 2-(hydroxymethyl)-2-Methyl-",CC(CO)(CO)CO,556.15,5,"[1, 6, 8]",3,True,CHO,alcohol
1839,M-Hydroxyphenyl Acetate,CC(=O)OC1=CC=CC(=C1)O,556.15,8,"[1, 6, 8]",3,True,CHO,ester
1840,Dimethyl Phthalate,COC(=O)C1=CC=CC=C1C(=O)OC,556.8499999999999,10,"[1, 6, 8]",3,True,CHO,ester
1841,"1,4-Cyclohexanedimethanol",C1CC(CCC1CO)CO,557.65,8,"[1, 6, 8]",3,True,CHO,alcohol
1842,"1,2-Benzenediol, 4-(1,1-Dimethylethyl)-",CC(C)(C)C1=CC(=C(C=C1)O)O,558.15,10,"[1, 6, 8]",3,True,CHO,aromatic
1843,2-Naphthol,C1=CC=C2C=C(C=CC2=C1)O,558.15,10,"[1, 6, 8]",3,True,CHO,aromatic
1844,Apiole (dill),COC1=C(C2=C(C=C1CC=C)OCO2)OC,558.15,12,"[1, 6, 8]",3,True,CHO,ester
1845,Triethylene Glycol,C(COCCOCCO)O,558.15,6,"[1, 6, 8]",3,True,CHO,ester
1846,"Hexanedioic Acid, Monoethyl Ester",CCOC(=O)CCCCC(=O)O,558.15,8,"[1, 6, 8]",3,True,CHO,carboxylic_acid
1847,Phenoxyacetic Acid,C1=CC=C(C=C1)OCC(=O)O,558.15,8,"[1, 6, 8]",3,True,CHO,carboxylic_acid
1848,Vanillin,COC1=C(C=CC(=C1)C=O)O,558.15,8,"[1, 6, 8]",3,True,CHO,ester
1849,Phthalic Anhydride,C1=CC=C2C(=C1)C(=O)OC2=O,558.45,8,"[1, 6, 8]",3,True,CHO,aromatic
1850,"1,3-Benzodioxole-5-Carboxylic Acid, Ethyl Ester",CCOC(=O)C1=CC2=C(C=C1)OCO2,558.65,10,"[1, 6, 8]",3,True,CHO,ester
1851,"2(3h)-Furanone, 5-Heptyldihydro-",CCCCCCCC1CCC(=O)O1,559.15,11,"[1, 6, 8]",3,True,CHO,ester
1852,2-Phenylphenol,C1=CC=C(C=C1)C2=CC=CC=C2O,559.15,12,"[1, 6, 8]",3,True,CHO,aromatic
1853,Hydroquinone,C1=CC(=CC=C1O)O,559.15,6,"[1, 6, 8]",3,True,CHO,aromatic
1854,"Benzoic Acid, 4-Hydroxy-3-Methoxy-, Methyl Ester",COC1=C(C=CC(=C1)C(=O)OC)O,559.15,9,"[1, 6, 8]",3,True,CHO,ester
1855,1h-2-Benzopyran-1-One,C1=CC=C2C(=C1)C=COC2=O,559.15,9,"[1, 6, 8]",3,True,CHO,aromatic
1856,"Ethanone, 1-(3,4-Dimethoxyphenyl)-",CC(=O)C1=CC(=C(C=C1)OC)OC,560.15,10,"[1, 6, 8]",3,True,CHO,ester
1857,Dibenzofuran,C1=CC=C2C(=C1)C3=CC=CC=C3O2,560.15,12,"[1, 6, 8]",3,True,CHO,aromatic
1858,Glutaric Anhydride,C1CC(=O)OC(=O)C1,560.15,5,"[1, 6, 8]",3,True,CHO,ether
1859,Dimethylterephthalate,COC(=O)C1=CC=C(C=C1)C(=O)OC,561.15,10,"[1, 6, 8]",3,True,CHO,ester
1860,1-Naphthol,C1=CC=C2C(=C1)C=CC=C2O,561.15,10,"[1, 6, 8]",3,True,CHO,aromatic
1861,"1,1,1-Tris(hydroxymethyl)propane",CCC(CO)(CO)CO,562.15,6,"[1, 6, 8]",3,True,CHO,alcohol
1862,5-Methylresorcinol,CC1=CC(=CC(=C1)O)O,562.65,7,"[1, 6, 8]",3,True,CHO,aromatic
1863,4-Phenylbutyric Acid,C1=CC=C(C=C1)CCCC(=O)O,563.15,10,"[1, 6, 8]",3,True,CHO,aromatic
1864,"2-Naphthalenecarboxylic Acid, Methyl Ester",COC(=O)C1=CC2=CC=CC=C2C=C1,563.15,12,"[1, 6, 8]",3,True,CHO,ester
1865,Glycerol,C(C(CO)O)O,563.15,3,"[1, 6, 8]",3,True,CHO,alcohol
1866,Fumaric Acid,C(=C/C(=O)O)\C(=O)O,563.15,4,"[1, 6, 8]",3,True,CHO,alkene
1867,Phthalide,C1C2=CC=CC=C2C(=O)O1,563.15,8,"[1, 6, 8]",3,True,CHO,ester
1868,"Benzoic Acid, 4-Hydroxy-3-Methoxy-, Ethyl Ester",CCOC(=O)C1=CC(=C(C=C1)O)OC,565.15,10,"[1, 6, 8]",3,True,CHO,ester
1869,1-Naphthalenecarboxaldehyde,C1=CC=C2C(=C1)C=CC=C2C=O,565.15,11,"[1, 6, 8]",3,True,CHO,aromatic
1870,"2h-1-Benzopyran-2-One, 3-Methyl-",CC1=CC2=CC=CC=C2OC1=O,565.65,10,"[1, 6, 8]",3,True,CHO,aromatic
1871,"1,3-Benzodioxole, 4,7-Dimethoxy-5-(2-Propenyl)-",COC1=C2C(=C(C(=C1)CC=C)OC)OCO2,567.15,12,"[1, 6, 8]",3,True,CHO,ester
1872,P-Cyclohexylphenol,C1CCC(CC1)C2=CC=C(C=C2)O,567.15,12,"[1, 6, 8]",3,True,CHO,aromatic
1873,Triethyl Citrate,CCOC(=O)CC(CC(=O)OCC)(C(=O)OCC)O,567.15,12,"[1, 6, 8]",3,True,CHO,ester
1874,"Benzaldehyde, 3-Ethoxy-4-Hydroxy-",CCOC1=C(C=CC(=C1)C=O)O,567.15,9,"[1, 6, 8]",3,True,CHO,ester
1875,Decanedioic Acid,C(CCCCC(=O)O)CCCC(=O)O,567.65,10,"[1, 6, 8]",3,True,CHO,alcohol
1876,Diethyl Phthalate,CCOC(=O)C1=CC=CC=C1C(=O)OCC,568.15,12,"[1, 6, 8]",3,True,CHO,ester
1877,"2,3,4-Trimethoxyacetophenone",CC(=O)C1=C(C(=C(C=C1)OC)OC)OC,569.15,11,"[1, 6, 8]",3,True,CHO,ester
1878,Trans-Asarone,C/C=C/C1=CC(=C(C=C1OC)OC)OC,569.15,12,"[1, 6, 8]",3,True,CHO,ester
1879,M-Hydroxyacetophenone,CC(=O)C1=CC(=CC=C1)O,569.15,8,"[1, 6, 8]",3,True,CHO,ketone
1880,Alpha-Naphthyl Methyl Ketone,CC(=O)C1=CC=CC2=CC=CC=C21,570.15,12,"[1, 6, 8]",3,True,CHO,aromatic
1881,"Ethanone, 1-(4-Hydroxy-3-Methoxyphenyl)-",CC(=O)C1=CC(=C(C=C1)O)OC,570.15,9,"[1, 6, 8]",3,True,CHO,ester
1882,"Benzenemethanol, 3,4-Dimethoxy-",COC1=C(C=C(C=C1)CO)OC,571.15,9,"[1, 6, 8]",3,True,CHO,ester
1883,Dodecanoic Acid,CCCCCCCCCCCC(=O)O,572.05,12,"[1, 6, 8]",3,True,CHO,alcohol
1884,Methyl Isopropyl Ether,CC(C)OC,303.84999999999997,4,"[1, 6, 8]",3,True,CHO,ester
1885,"Benzoic Acid, 2,4,5-Trimethoxy-",COC1=CC(=C(C=C1C(=O)O)OC)OC,573.15,10,"[1, 6, 8]",3,True,CHO,carboxylic_acid
1886,1-Napthoic Acid,C1=CC=C2C(=C1)C=CC=C2C(=O)O,573.15,11,"[1, 6, 8]",3,True,CHO,aromatic
1887,"1,2,4-Benzenetriol, Triacetate",CC(=O)OC1=CC(=C(C=C1)OC(=O)C)OC(=O)C,573.15,12,"[1, 6, 8]",3,True,CHO,ester
1888,"Pentanedioic Acid, 3-Oxo-",C(C(=O)CC(=O)O)C(=O)O,573.15,5,"[1, 6, 8]",3,True,CHO,carboxylic_acid